 Entering Gaussian System, Link 0=g16
 Input=hupbe0opttd.gjf
 Output=hupbe0opttd.log
 Initial command:
 /usr/g16/l1.exe "/scratch/lvziyi/gaussian/Gau-201023.inp" -scrdir="/scratch/lvziyi/gaussian/"
 Entering Link 1 = /usr/g16/l1.exe PID=    201024.
  
 Copyright (c) 1988,1990,1992,1993,1995,1998,2003,2009,2016,
            Gaussian, Inc.  All Rights Reserved.
  
 This is part of the Gaussian(R) 16 program.  It is based on
 the Gaussian(R) 09 system (copyright 2009, Gaussian, Inc.),
 the Gaussian(R) 03 system (copyright 2003, Gaussian, Inc.),
 the Gaussian(R) 98 system (copyright 1998, Gaussian, Inc.),
 the Gaussian(R) 94 system (copyright 1995, Gaussian, Inc.),
 the Gaussian 92(TM) system (copyright 1992, Gaussian, Inc.),
 the Gaussian 90(TM) system (copyright 1990, Gaussian, Inc.),
 the Gaussian 88(TM) system (copyright 1988, Gaussian, Inc.),
 the Gaussian 86(TM) system (copyright 1986, Carnegie Mellon
 University), and the Gaussian 82(TM) system (copyright 1983,
 Carnegie Mellon University). Gaussian is a federally registered
 trademark of Gaussian, Inc.
  
 This software contains proprietary and confidential information,
 including trade secrets, belonging to Gaussian, Inc.
  
 This software is provided under written license and may be
 used, copied, transmitted, or stored only in accord with that
 written license.
  
 The following legend is applicable only to US Government
 contracts under FAR:
  
                    RESTRICTED RIGHTS LEGEND
  
 Use, reproduction and disclosure by the US Government is
 subject to restrictions as set forth in subparagraphs (a)
 and (c) of the Commercial Computer Software - Restricted
 Rights clause in FAR 52.227-19.
  
 Gaussian, Inc.
 340 Quinnipiac St., Bldg. 40, Wallingford CT 06492
  
  
 ---------------------------------------------------------------
 Warning -- This program may not be used in any manner that
 competes with the business of Gaussian, Inc. or will provide
 assistance to any competitor of Gaussian, Inc.  The licensee
 of this program is prohibited from giving any competitor of
 Gaussian, Inc. access to this program.  By using this program,
 the user acknowledges that Gaussian, Inc. is engaged in the
 business of creating and licensing software in the field of
 computational chemistry and represents and warrants to the
 licensee that it is not a competitor of Gaussian, Inc. and that
 it will not use this program in any manner prohibited above.
 ---------------------------------------------------------------
  

 Cite this work as:
 Gaussian 16, Revision A.03,
 M. J. Frisch, G. W. Trucks, H. B. Schlegel, G. E. Scuseria, 
 M. A. Robb, J. R. Cheeseman, G. Scalmani, V. Barone, 
 G. A. Petersson, H. Nakatsuji, X. Li, M. Caricato, A. V. Marenich, 
 J. Bloino, B. G. Janesko, R. Gomperts, B. Mennucci, H. P. Hratchian, 
 J. V. Ortiz, A. F. Izmaylov, J. L. Sonnenberg, D. Williams-Young, 
 F. Ding, F. Lipparini, F. Egidi, J. Goings, B. Peng, A. Petrone, 
 T. Henderson, D. Ranasinghe, V. G. Zakrzewski, J. Gao, N. Rega, 
 G. Zheng, W. Liang, M. Hada, M. Ehara, K. Toyota, R. Fukuda, 
 J. Hasegawa, M. Ishida, T. Nakajima, Y. Honda, O. Kitao, H. Nakai, 
 T. Vreven, K. Throssell, J. A. Montgomery, Jr., J. E. Peralta, 
 F. Ogliaro, M. J. Bearpark, J. J. Heyd, E. N. Brothers, K. N. Kudin, 
 V. N. Staroverov, T. A. Keith, R. Kobayashi, J. Normand, 
 K. Raghavachari, A. P. Rendell, J. C. Burant, S. S. Iyengar, 
 J. Tomasi, M. Cossi, J. M. Millam, M. Klene, C. Adamo, R. Cammi, 
 J. W. Ochterski, R. L. Martin, K. Morokuma, O. Farkas, 
 J. B. Foresman, and D. J. Fox, Gaussian, Inc., Wallingford CT, 2016.
 
 ******************************************
 Gaussian 16:  ES64L-G16RevA.03 25-Dec-2016
                26-Oct-2023 
 ******************************************
 %chk=hupbe0gebf.chk
 %mem=5GB
 %nprocshared=24
 Will use up to   24 processors via shared memory.
 -----------------------------------------
 #p TD(nstates=20,root=1) pbe1pbe/def2tzvp
 -----------------------------------------
 1/38=1,172=1/1;
 2/12=2,17=6,18=5,40=1/2;
 3/5=44,7=101,11=9,25=1,30=1,74=-13/1,2,3,8;
 4//1;
 5/5=2,38=5/2;
 8/6=1,10=1,107=1,108=20/1;
 9/8=1,41=20,42=1,70=2/14;
 6/7=2,8=2,9=2,10=2/1;
 99/5=1,9=1/99;
 Leave Link    1 at Thu Oct 26 15:38:59 2023, MaxMem=   671088640 cpu:               1.2 elap:               0.1
 (Enter /usr/g16/l101.exe)
 ----
 gebf
 ----
 Symbolic Z-matrix:
 Charge =  0 Multiplicity = 1
 C                     0.        3.81748  -2.80442 
 C                     0.        2.53447  -3.34046 
 C                     0.        1.42026  -2.50773 
 C                     0.        1.60375  -1.13759 
 C                     0.        2.89541  -0.59938 
 C                     0.        4.00789  -1.42992 
 H                     0.        4.67548  -3.46719 
 H                     0.        2.40274  -4.41662 
 H                     0.        0.42295  -2.93631 
 H                     0.        5.01097  -1.0171 
 C                     0.        0.55749  -0.04112 
 C                     0.        1.4297    1.19832 
 C                     0.        1.04543   2.52621 
 C                     0.        2.02407   3.51474 
 C                     0.        3.37232   3.17465 
 C                     0.        3.76411   1.84348 
 C                     0.        2.78687   0.8574 
 H                     0.       -0.00431   2.8025 
 H                     0.        1.73443   4.55952 
 H                     0.        4.12274   3.95714 
 H                     0.        4.81725   1.58364 
 C                    -1.24946  -0.34285  -0.10783 
 H                    -1.19064  -0.93361  -1.03009 
 H                    -1.18883  -1.06445   0.71598 
 C                     1.24946  -0.34285  -0.10783 
 H                     1.18883  -1.06445   0.71598 
 H                     1.19064  -0.93361  -1.03009 
 C                    -2.58958   0.37198  -0.05222 
 H                    -2.65289   0.96259   0.86823 
 H                    -2.66009   1.08662  -0.87949 
 C                    -3.7672   -0.58863  -0.11461 
 H                    -3.70705  -1.18126  -1.03646 
 H                    -3.69457  -1.30854   0.71069 
 C                     2.58958   0.37198  -0.05222 
 H                     2.65289   0.96259   0.86823 
 H                     2.66009   1.08662  -0.87949 
 C                     3.7672   -0.58863  -0.11461 
 H                     3.70705  -1.18125  -1.03646 
 H                     3.69457  -1.30854   0.71069 
 C                    -5.11748   0.10762  -0.05342 
 H                    -5.17565   0.70253   0.86662 
 H                    -5.19255   0.82518  -0.88 
 C                    -6.29787  -0.849    -0.10848 
 H                    -6.24144  -1.44246  -1.02984 
 H                    -6.22023  -1.56801   0.71694 
 C                     5.11748   0.10762  -0.05342 
 H                     5.17565   0.70253   0.86662 
 H                     5.19255   0.82518  -0.88 
 C                     6.29787  -0.849    -0.10848 
 H                     6.24144  -1.44246  -1.02985 
 H                     6.22023  -1.56802   0.71693 
 C                    -7.6479   -0.15285  -0.04144 
 H                    -7.70257   0.4425    0.87872 
 H                    -7.72712   0.56456  -0.86797 
 C                     7.6479   -0.15285  -0.04144 
 H                     7.70257   0.44249   0.87872 
 H                     7.72712   0.56456  -0.86796 
 C                     8.82898  -1.10899  -0.09114 
 H                     8.77594  -1.70321  -1.01218 
 H                     8.74825  -1.82738   0.73448 
 C                    -8.82898  -1.10899  -0.09114 
 H                    -8.77594  -1.70322  -1.01217 
 H                    -8.74825  -1.82737   0.73449 
 C                     10.17866  -0.4126   -0.01981 
 H                     10.26049   0.30463  -0.84627 
 H                     10.23041   0.18297   0.90041 
 C                     11.36004  -1.36855  -0.06568 
 H                     11.27729  -2.08639   0.76019 
 H                     11.30941  -1.9634   -0.98644 
 C                     12.70944  -0.67192   0.00846 
 H                     12.7929   0.04516  -0.81797 
 H                     12.75925  -0.0762    0.9287 
 C                     13.89101  -1.62777  -0.03497 
 H                     13.8071  -2.34515   0.79116 
 H                     13.84184  -2.22312  -0.95547 
 C                     15.24025  -0.93095   0.04068 
 H                     15.32453  -0.21398  -0.7858 
 H                     15.28898  -0.33511   0.96091 
 C                     16.42198  -1.88635  -0.00141 
 H                     16.33865  -2.60372   0.825 
 H                     16.37454  -2.48248  -0.92168 
 C                     17.77168  -1.18998   0.0747 
 H                     17.85424  -0.47402  -0.75143 
 H                     17.81813  -0.59487   0.99426 
 C                     18.94504  -2.15426   0.03228 
 H                     19.90103  -1.62836   0.08847 
 H                     18.90528  -2.86045   0.86657 
 H                     18.94173  -2.73879  -0.89219 
 C                    -10.17866  -0.4126   -0.01981 
 H                    -10.23041   0.18298   0.90041 
 H                    -10.26049   0.30462  -0.84628 
 C                    -11.36004  -1.36855  -0.06568 
 H                    -11.27729  -2.08639   0.7602 
 H                    -11.30941  -1.96341  -0.98644 
 C                    -12.70944  -0.67192   0.00846 
 H                    -12.75925  -0.0762    0.92869 
 H                    -12.7929   0.04516  -0.81798 
 C                    -13.89101  -1.62777  -0.03497 
 H                    -13.8071  -2.34515   0.79117 
 H                    -13.84184  -2.22313  -0.95546 
 C                    -15.24025  -0.93095   0.04068 
 H                    -15.28898  -0.3351    0.96091 
 H                    -15.32453  -0.21399  -0.78581 
 C                    -16.42198  -1.88635  -0.00141 
 H                    -16.33865  -2.60371   0.82501 
 H                    -16.37454  -2.48248  -0.92167 
 C                    -17.77168  -1.18998   0.0747 
 H                    -17.81813  -0.59486   0.99426 
 H                    -17.85424  -0.47402  -0.75144 
 C                    -18.94504  -2.15426   0.03228 
 H                    -18.90528  -2.86045   0.86658 
 H                    -19.90103  -1.62836   0.08847 
 H                    -18.94173  -2.7388   -0.89219 
 
 ITRead=  0  0  0  0  0  0  0  0  0  0  0  0  0  0  0  0  0  0  0  0
 ITRead=  0  0  0  0  0  0  0  0  0  0  0  0  0  0  0  0  0  0  0  0
 ITRead=  0  0  0  0  0  0  0  0  0  0  0  0  0  0  0  0  0  0  0  0
 ITRead=  0  0  0  0  0  0  0  0  0  0  0  0  0  0  0  0  0  0  0  0
 ITRead=  0  0  0  0  0  0  0  0  0  0  0  0  0  0  0  0  0  0  0  0
 ITRead=  0  0  0  0  0  0  0  0  0  0  0  0  0
 MicOpt= -1 -1 -1 -1 -1 -1 -1 -1 -1 -1 -1 -1 -1 -1 -1 -1 -1 -1 -1 -1
 MicOpt= -1 -1 -1 -1 -1 -1 -1 -1 -1 -1 -1 -1 -1 -1 -1 -1 -1 -1 -1 -1
 MicOpt= -1 -1 -1 -1 -1 -1 -1 -1 -1 -1 -1 -1 -1 -1 -1 -1 -1 -1 -1 -1
 MicOpt= -1 -1 -1 -1 -1 -1 -1 -1 -1 -1 -1 -1 -1 -1 -1 -1 -1 -1 -1 -1
 MicOpt= -1 -1 -1 -1 -1 -1 -1 -1 -1 -1 -1 -1 -1 -1 -1 -1 -1 -1 -1 -1
 MicOpt= -1 -1 -1 -1 -1 -1 -1 -1 -1 -1 -1 -1 -1
 NAtoms=    113 NQM=      113 NQMF=       0 NMMI=      0 NMMIF=      0
                NMic=       0 NMicF=      0.
                    Isotopes and Nuclear Properties:
 (Nuclear quadrupole moments (NQMom) in fm**2, nuclear magnetic moments (NMagM)
  in nuclear magnetons)

  Atom         1           2           3           4           5           6           7           8           9          10
 IAtWgt=          12          12          12          12          12          12           1           1           1           1
 AtmWgt=  12.0000000  12.0000000  12.0000000  12.0000000  12.0000000  12.0000000   1.0078250   1.0078250   1.0078250   1.0078250
 NucSpn=           0           0           0           0           0           0           1           1           1           1
 AtZEff=  -0.0000000  -0.0000000  -0.0000000  -0.0000000  -0.0000000  -0.0000000  -0.0000000  -0.0000000  -0.0000000  -0.0000000
 NQMom=    0.0000000   0.0000000   0.0000000   0.0000000   0.0000000   0.0000000   0.0000000   0.0000000   0.0000000   0.0000000
 NMagM=    0.0000000   0.0000000   0.0000000   0.0000000   0.0000000   0.0000000   2.7928460   2.7928460   2.7928460   2.7928460
 AtZNuc=   6.0000000   6.0000000   6.0000000   6.0000000   6.0000000   6.0000000   1.0000000   1.0000000   1.0000000   1.0000000

  Atom        11          12          13          14          15          16          17          18          19          20
 IAtWgt=          12          12          12          12          12          12          12           1           1           1
 AtmWgt=  12.0000000  12.0000000  12.0000000  12.0000000  12.0000000  12.0000000  12.0000000   1.0078250   1.0078250   1.0078250
 NucSpn=           0           0           0           0           0           0           0           1           1           1
 AtZEff=  -0.0000000  -0.0000000  -0.0000000  -0.0000000  -0.0000000  -0.0000000  -0.0000000  -0.0000000  -0.0000000  -0.0000000
 NQMom=    0.0000000   0.0000000   0.0000000   0.0000000   0.0000000   0.0000000   0.0000000   0.0000000   0.0000000   0.0000000
 NMagM=    0.0000000   0.0000000   0.0000000   0.0000000   0.0000000   0.0000000   0.0000000   2.7928460   2.7928460   2.7928460
 AtZNuc=   6.0000000   6.0000000   6.0000000   6.0000000   6.0000000   6.0000000   6.0000000   1.0000000   1.0000000   1.0000000

  Atom        21          22          23          24          25          26          27          28          29          30
 IAtWgt=           1          12           1           1          12           1           1          12           1           1
 AtmWgt=   1.0078250  12.0000000   1.0078250   1.0078250  12.0000000   1.0078250   1.0078250  12.0000000   1.0078250   1.0078250
 NucSpn=           1           0           1           1           0           1           1           0           1           1
 AtZEff=  -0.0000000  -0.0000000  -0.0000000  -0.0000000  -0.0000000  -0.0000000  -0.0000000  -0.0000000  -0.0000000  -0.0000000
 NQMom=    0.0000000   0.0000000   0.0000000   0.0000000   0.0000000   0.0000000   0.0000000   0.0000000   0.0000000   0.0000000
 NMagM=    2.7928460   0.0000000   2.7928460   2.7928460   0.0000000   2.7928460   2.7928460   0.0000000   2.7928460   2.7928460
 AtZNuc=   1.0000000   6.0000000   1.0000000   1.0000000   6.0000000   1.0000000   1.0000000   6.0000000   1.0000000   1.0000000

  Atom        31          32          33          34          35          36          37          38          39          40
 IAtWgt=          12           1           1          12           1           1          12           1           1          12
 AtmWgt=  12.0000000   1.0078250   1.0078250  12.0000000   1.0078250   1.0078250  12.0000000   1.0078250   1.0078250  12.0000000
 NucSpn=           0           1           1           0           1           1           0           1           1           0
 AtZEff=  -0.0000000  -0.0000000  -0.0000000  -0.0000000  -0.0000000  -0.0000000  -0.0000000  -0.0000000  -0.0000000  -0.0000000
 NQMom=    0.0000000   0.0000000   0.0000000   0.0000000   0.0000000   0.0000000   0.0000000   0.0000000   0.0000000   0.0000000
 NMagM=    0.0000000   2.7928460   2.7928460   0.0000000   2.7928460   2.7928460   0.0000000   2.7928460   2.7928460   0.0000000
 AtZNuc=   6.0000000   1.0000000   1.0000000   6.0000000   1.0000000   1.0000000   6.0000000   1.0000000   1.0000000   6.0000000

  Atom        41          42          43          44          45          46          47          48          49          50
 IAtWgt=           1           1          12           1           1          12           1           1          12           1
 AtmWgt=   1.0078250   1.0078250  12.0000000   1.0078250   1.0078250  12.0000000   1.0078250   1.0078250  12.0000000   1.0078250
 NucSpn=           1           1           0           1           1           0           1           1           0           1
 AtZEff=  -0.0000000  -0.0000000  -0.0000000  -0.0000000  -0.0000000  -0.0000000  -0.0000000  -0.0000000  -0.0000000  -0.0000000
 NQMom=    0.0000000   0.0000000   0.0000000   0.0000000   0.0000000   0.0000000   0.0000000   0.0000000   0.0000000   0.0000000
 NMagM=    2.7928460   2.7928460   0.0000000   2.7928460   2.7928460   0.0000000   2.7928460   2.7928460   0.0000000   2.7928460
 AtZNuc=   1.0000000   1.0000000   6.0000000   1.0000000   1.0000000   6.0000000   1.0000000   1.0000000   6.0000000   1.0000000

  Atom        51          52          53          54          55          56          57          58          59          60
 IAtWgt=           1          12           1           1          12           1           1          12           1           1
 AtmWgt=   1.0078250  12.0000000   1.0078250   1.0078250  12.0000000   1.0078250   1.0078250  12.0000000   1.0078250   1.0078250
 NucSpn=           1           0           1           1           0           1           1           0           1           1
 AtZEff=  -0.0000000  -0.0000000  -0.0000000  -0.0000000  -0.0000000  -0.0000000  -0.0000000  -0.0000000  -0.0000000  -0.0000000
 NQMom=    0.0000000   0.0000000   0.0000000   0.0000000   0.0000000   0.0000000   0.0000000   0.0000000   0.0000000   0.0000000
 NMagM=    2.7928460   0.0000000   2.7928460   2.7928460   0.0000000   2.7928460   2.7928460   0.0000000   2.7928460   2.7928460
 AtZNuc=   1.0000000   6.0000000   1.0000000   1.0000000   6.0000000   1.0000000   1.0000000   6.0000000   1.0000000   1.0000000

  Atom        61          62          63          64          65          66          67          68          69          70
 IAtWgt=          12           1           1          12           1           1          12           1           1          12
 AtmWgt=  12.0000000   1.0078250   1.0078250  12.0000000   1.0078250   1.0078250  12.0000000   1.0078250   1.0078250  12.0000000
 NucSpn=           0           1           1           0           1           1           0           1           1           0
 AtZEff=  -0.0000000  -0.0000000  -0.0000000  -0.0000000  -0.0000000  -0.0000000  -0.0000000  -0.0000000  -0.0000000  -0.0000000
 NQMom=    0.0000000   0.0000000   0.0000000   0.0000000   0.0000000   0.0000000   0.0000000   0.0000000   0.0000000   0.0000000
 NMagM=    0.0000000   2.7928460   2.7928460   0.0000000   2.7928460   2.7928460   0.0000000   2.7928460   2.7928460   0.0000000
 AtZNuc=   6.0000000   1.0000000   1.0000000   6.0000000   1.0000000   1.0000000   6.0000000   1.0000000   1.0000000   6.0000000

  Atom        71          72          73          74          75          76          77          78          79          80
 IAtWgt=           1           1          12           1           1          12           1           1          12           1
 AtmWgt=   1.0078250   1.0078250  12.0000000   1.0078250   1.0078250  12.0000000   1.0078250   1.0078250  12.0000000   1.0078250
 NucSpn=           1           1           0           1           1           0           1           1           0           1
 AtZEff=  -0.0000000  -0.0000000  -0.0000000  -0.0000000  -0.0000000  -0.0000000  -0.0000000  -0.0000000  -0.0000000  -0.0000000
 NQMom=    0.0000000   0.0000000   0.0000000   0.0000000   0.0000000   0.0000000   0.0000000   0.0000000   0.0000000   0.0000000
 NMagM=    2.7928460   2.7928460   0.0000000   2.7928460   2.7928460   0.0000000   2.7928460   2.7928460   0.0000000   2.7928460
 AtZNuc=   1.0000000   1.0000000   6.0000000   1.0000000   1.0000000   6.0000000   1.0000000   1.0000000   6.0000000   1.0000000

  Atom        81          82          83          84          85          86          87          88          89          90
 IAtWgt=           1          12           1           1          12           1           1           1          12           1
 AtmWgt=   1.0078250  12.0000000   1.0078250   1.0078250  12.0000000   1.0078250   1.0078250   1.0078250  12.0000000   1.0078250
 NucSpn=           1           0           1           1           0           1           1           1           0           1
 AtZEff=  -0.0000000  -0.0000000  -0.0000000  -0.0000000  -0.0000000  -0.0000000  -0.0000000  -0.0000000  -0.0000000  -0.0000000
 NQMom=    0.0000000   0.0000000   0.0000000   0.0000000   0.0000000   0.0000000   0.0000000   0.0000000   0.0000000   0.0000000
 NMagM=    2.7928460   0.0000000   2.7928460   2.7928460   0.0000000   2.7928460   2.7928460   2.7928460   0.0000000   2.7928460
 AtZNuc=   1.0000000   6.0000000   1.0000000   1.0000000   6.0000000   1.0000000   1.0000000   1.0000000   6.0000000   1.0000000

  Atom        91          92          93          94          95          96          97          98          99         100
 IAtWgt=           1          12           1           1          12           1           1          12           1           1
 AtmWgt=   1.0078250  12.0000000   1.0078250   1.0078250  12.0000000   1.0078250   1.0078250  12.0000000   1.0078250   1.0078250
 NucSpn=           1           0           1           1           0           1           1           0           1           1
 AtZEff=  -0.0000000  -0.0000000  -0.0000000  -0.0000000  -0.0000000  -0.0000000  -0.0000000  -0.0000000  -0.0000000  -0.0000000
 NQMom=    0.0000000   0.0000000   0.0000000   0.0000000   0.0000000   0.0000000   0.0000000   0.0000000   0.0000000   0.0000000
 NMagM=    2.7928460   0.0000000   2.7928460   2.7928460   0.0000000   2.7928460   2.7928460   0.0000000   2.7928460   2.7928460
 AtZNuc=   1.0000000   6.0000000   1.0000000   1.0000000   6.0000000   1.0000000   1.0000000   6.0000000   1.0000000   1.0000000

  Atom       101         102         103         104         105         106         107         108         109         110
 IAtWgt=          12           1           1          12           1           1          12           1           1          12
 AtmWgt=  12.0000000   1.0078250   1.0078250  12.0000000   1.0078250   1.0078250  12.0000000   1.0078250   1.0078250  12.0000000
 NucSpn=           0           1           1           0           1           1           0           1           1           0
 AtZEff=  -0.0000000  -0.0000000  -0.0000000  -0.0000000  -0.0000000  -0.0000000  -0.0000000  -0.0000000  -0.0000000  -0.0000000
 NQMom=    0.0000000   0.0000000   0.0000000   0.0000000   0.0000000   0.0000000   0.0000000   0.0000000   0.0000000   0.0000000
 NMagM=    0.0000000   2.7928460   2.7928460   0.0000000   2.7928460   2.7928460   0.0000000   2.7928460   2.7928460   0.0000000
 AtZNuc=   6.0000000   1.0000000   1.0000000   6.0000000   1.0000000   1.0000000   6.0000000   1.0000000   1.0000000   6.0000000

  Atom       111         112         113
 IAtWgt=           1           1           1
 AtmWgt=   1.0078250   1.0078250   1.0078250
 NucSpn=           1           1           1
 AtZEff=  -0.0000000  -0.0000000  -0.0000000
 NQMom=    0.0000000   0.0000000   0.0000000
 NMagM=    2.7928460   2.7928460   2.7928460
 AtZNuc=   1.0000000   1.0000000   1.0000000
 Leave Link  101 at Thu Oct 26 15:39:00 2023, MaxMem=   671088640 cpu:               4.6 elap:               0.2
 (Enter /usr/g16/l202.exe)
 Stoichiometry    C43H70
 Framework group  C1[X(C43H70)]
 Deg. of freedom   333
 Full point group                 C1      NOp   1
 Largest Abelian subgroup         C1      NOp   1
 Largest concise Abelian subgroup C1      NOp   1
                         Standard orientation:                         
 ---------------------------------------------------------------------
 Center     Atomic      Atomic             Coordinates (Angstroms)
 Number     Number       Type             X           Y           Z
 ---------------------------------------------------------------------
      1          6           0        0.000000    3.817482   -2.804420
      2          6           0        0.000000    2.534466   -3.340464
      3          6           0       -0.000000    1.420258   -2.507726
      4          6           0        0.000000    1.603747   -1.137589
      5          6           0        0.000000    2.895413   -0.599383
      6          6           0        0.000000    4.007887   -1.429923
      7          1           0        0.000000    4.675479   -3.467192
      8          1           0        0.000000    2.402742   -4.416621
      9          1           0       -0.000000    0.422949   -2.936306
     10          1           0        0.000000    5.010973   -1.017096
     11          6           0       -0.000000    0.557487   -0.041118
     12          6           0       -0.000000    1.429696    1.198316
     13          6           0       -0.000000    1.045433    2.526208
     14          6           0        0.000000    2.024072    3.514742
     15          6           0        0.000000    3.372322    3.174646
     16          6           0        0.000000    3.764109    1.843480
     17          6           0        0.000000    2.786873    0.857395
     18          1           0       -0.000000   -0.004313    2.802504
     19          1           0        0.000000    1.734429    4.559524
     20          1           0        0.000000    4.122740    3.957139
     21          1           0        0.000000    4.817247    1.583642
     22          6           0       -1.249458   -0.342850   -0.107830
     23          1           0       -1.190642   -0.933612   -1.030087
     24          1           0       -1.188829   -1.064453    0.715980
     25          6           0        1.249458   -0.342850   -0.107830
     26          1           0        1.188829   -1.064453    0.715979
     27          1           0        1.190642   -0.933612   -1.030088
     28          6           0       -2.589576    0.371976   -0.052220
     29          1           0       -2.652890    0.962589    0.868232
     30          1           0       -2.660085    1.086622   -0.879490
     31          6           0       -3.767201   -0.588634   -0.114610
     32          1           0       -3.707047   -1.181255   -1.036458
     33          1           0       -3.694565   -1.308539    0.710692
     34          6           0        2.589576    0.371976   -0.052220
     35          1           0        2.652891    0.962588    0.868233
     36          1           0        2.660085    1.086623   -0.879490
     37          6           0        3.767201   -0.588633   -0.114611
     38          1           0        3.707048   -1.181254   -1.036460
     39          1           0        3.694565   -1.308540    0.710690
     40          6           0       -5.117484    0.107624   -0.053423
     41          1           0       -5.175652    0.702534    0.866620
     42          1           0       -5.192553    0.825176   -0.879999
     43          6           0       -6.297869   -0.849000   -0.108482
     44          1           0       -6.241437   -1.442464   -1.029844
     45          1           0       -6.220231   -1.568014    0.716938
     46          6           0        5.117484    0.107624   -0.053423
     47          1           0        5.175652    0.702532    0.866621
     48          1           0        5.192553    0.825178   -0.879997
     49          6           0        6.297869   -0.848999   -0.108483
     50          1           0        6.241438   -1.442462   -1.029847
     51          1           0        6.220231   -1.568016    0.716934
     52          6           0       -7.647900   -0.152853   -0.041442
     53          1           0       -7.702572    0.442497    0.878722
     54          1           0       -7.727123    0.564558   -0.867966
     55          6           0        7.647900   -0.152853   -0.041441
     56          1           0        7.702571    0.442494    0.878724
     57          1           0        7.727123    0.564561   -0.867964
     58          6           0        8.828976   -1.108988   -0.091139
     59          1           0        8.775935   -1.703213   -1.012175
     60          1           0        8.748249   -1.827377    0.734482
     61          6           0       -8.828976   -1.108989   -0.091136
     62          1           0       -8.775935   -1.703216   -1.012171
     63          1           0       -8.748249   -1.827374    0.734487
     64          6           0       10.178656   -0.412601   -0.019805
     65          1           0       10.260486    0.304626   -0.846274
     66          1           0       10.230411    0.182974    0.900410
     67          6           0       11.360042   -1.368553   -0.065684
     68          1           0       11.277287   -2.086395    0.760192
     69          1           0       11.309411   -1.963401   -0.986441
     70          6           0       12.709444   -0.671924    0.008463
     71          1           0       12.792900    0.045164   -0.817974
     72          1           0       12.759254   -0.076203    0.928695
     73          6           0       13.891011   -1.627766   -0.034974
     74          1           0       13.807099   -2.345150    0.791164
     75          1           0       13.841837   -2.223123   -0.955467
     76          6           0       15.240246   -0.930953    0.040682
     77          1           0       15.324528   -0.213984   -0.785803
     78          1           0       15.288980   -0.335106    0.960914
     79          6           0       16.421982   -1.886348   -0.001408
     80          1           0       16.338652   -2.603718    0.825004
     81          1           0       16.374539   -2.482479   -0.921676
     82          6           0       17.771677   -1.189976    0.074698
     83          1           0       17.854239   -0.474017   -0.751431
     84          1           0       17.818125   -0.594867    0.994262
     85          6           0       18.945036   -2.154259    0.032279
     86          1           0       19.901026   -1.628358    0.088471
     87          1           0       18.905280   -2.860450    0.866573
     88          1           0       18.941733   -2.738791   -0.892189
     89          6           0      -10.178656   -0.412602   -0.019806
     90          1           0      -10.230411    0.182977    0.900407
     91          1           0      -10.260486    0.304623   -0.846277
     92          6           0      -11.360042   -1.368553   -0.065682
     93          1           0      -11.277288   -2.086392    0.760197
     94          1           0      -11.309410   -1.963406   -0.986436
     95          6           0      -12.709444   -0.671924    0.008461
     96          1           0      -12.759254   -0.076199    0.928691
     97          1           0      -12.792899    0.045160   -0.817978
     98          6           0      -13.891011   -1.627766   -0.034972
     99          1           0      -13.807099   -2.345147    0.791169
    100          1           0      -13.841836   -2.223127   -0.955462
    101          6           0      -15.240246   -0.930953    0.040680
    102          1           0      -15.288981   -0.335101    0.960908
    103          1           0      -15.324527   -0.213988   -0.785808
    104          6           0      -16.421982   -1.886348   -0.001407
    105          1           0      -16.338653   -2.603714    0.825008
    106          1           0      -16.374539   -2.482483   -0.921672
    107          6           0      -17.771677   -1.189976    0.074695
    108          1           0      -17.818125   -0.594863    0.994256
    109          1           0      -17.854238   -0.474020   -0.751437
    110          6           0      -18.945036   -2.154258    0.032280
    111          1           0      -18.905280   -2.860446    0.866577
    112          1           0      -19.901026   -1.628357    0.088468
    113          1           0      -18.941733   -2.738795   -0.892186
 ---------------------------------------------------------------------
 Rotational constants (GHZ):           0.1898095           0.0087983           0.0086674
 Leave Link  202 at Thu Oct 26 15:39:00 2023, MaxMem=   671088640 cpu:               0.2 elap:               0.0
 (Enter /usr/g16/l301.exe)
 Standard basis: def2TZVP (5D, 7F)
 Ernie: Thresh=  0.10000D-02 Tol=  0.10000D-05 Strict=F.
 There are  1968 symmetry adapted cartesian basis functions of A   symmetry.
 There are  1753 symmetry adapted basis functions of A   symmetry.
  1753 basis functions,  2753 primitive gaussians,  1968 cartesian basis functions
   164 alpha electrons      164 beta electrons
       nuclear repulsion energy      4261.7992487595 Hartrees.
 IExCor= 1009 DFT=T Ex+Corr=PBE1PBE ExCW=0 ScaHFX=  0.250000
 ScaDFX=  0.750000  0.750000  1.000000  1.000000 ScalE2=  1.000000  1.000000
 IRadAn=      5 IRanWt=     -1 IRanGd=            0 ICorTp=0 IEmpDi=  4
 NAtoms=  113 NActive=  113 NUniq=  113 SFac= 1.00D+00 NAtFMM=   60 NAOKFM=T Big=T
 Integral buffers will be    131072 words long.
 Regular integral format.
 Two-electron integral symmetry is turned on.
 Leave Link  301 at Thu Oct 26 15:39:00 2023, MaxMem=   671088640 cpu:               1.6 elap:               0.1
 (Enter /usr/g16/l302.exe)
 NPDir=0 NMtPBC=     1 NCelOv=     1 NCel=       1 NClECP=     1 NCelD=      1
         NCelK=      1 NCelE2=     1 NClLst=     1 CellRange=     0.0.
 One-electron integrals computed using PRISM.
 One-electron integral symmetry used in STVInt
   1 Symmetry operations used in ECPInt.
 ECPInt:  NShTT=  283881 NPrTT=  820996 LenC2=  125928 LenP2D=  247603.
 LDataN:  DoStor=T MaxTD1= 6 Len=  172
 Number of processors reduced to  12 by ecpmxn.
 NBasis=  1753 RedAO= T EigKep=  3.68D-06  NBF=  1753
 NBsUse=  1753 1.00D-06 EigRej= -1.00D+00 NBFU=  1753
 Precomputing XC quadrature grid using
 IXCGrd= 4 IRadAn=           5 IRanWt=          -1 IRanGd=           0 AccXCQ= 0.00D+00.
 Generated NRdTot=       0 NPtTot=           0 NUsed=           0 NTot=          32
 NSgBfM=  1231  1226  1226  1229  1231 MxSgAt=   113 MxSgA2=   106.
 Leave Link  302 at Thu Oct 26 15:39:09 2023, MaxMem=   671088640 cpu:             227.4 elap:               9.5
 (Enter /usr/g16/l303.exe)
 DipDrv:  MaxL=1.
 Leave Link  303 at Thu Oct 26 15:39:10 2023, MaxMem=   671088640 cpu:              11.0 elap:               0.5
 (Enter /usr/g16/l308.exe)
 Leave Link  308 at Thu Oct 26 15:39:11 2023, MaxMem=   671088640 cpu:              20.5 elap:               1.0
 (Enter /usr/g16/l401.exe)
 ExpMin= 9.52D-02 ExpMax= 1.36D+04 ExpMxC= 4.63D+02 IAcc=3 IRadAn=         5 AccDes= 0.00D+00
 Harris functional with IExCor= 1009 and IRadAn=       5 diagonalized for initial guess.
 HarFok:  IExCor= 1009 AccDes= 0.00D+00 IRadAn=         5 IDoV= 1 UseB2=F ITyADJ=14
 ICtDFT=  3500011 ScaDFX=  1.000000  1.000000  1.000000  1.000000
 FoFCou: FMM=F IPFlag=           0 FMFlag=      100000 FMFlg1=        2001
         NFxFlg=           0 DoJE=T BraDBF=F KetDBF=T FulRan=T
         wScrn=  0.000000 ICntrl=       500 IOpCl=  0 I1Cent=   200000004 NGrid=           0
         NMat0=    1 NMatS0=      1 NMatT0=    0 NMatD0=    1 NMtDS0=    0 NMtDT0=    0
 Petite list used in FoFCou.
 Harris En= -1680.28472948957    
 JPrj=0 DoOrth=F DoCkMO=F.
 Leave Link  401 at Thu Oct 26 15:39:25 2023, MaxMem=   671088640 cpu:             350.5 elap:              14.6
 (Enter /usr/g16/l502.exe)
 Integral symmetry usage will be decided dynamically.
 Closed shell SCF:
 Using DIIS extrapolation, IDIIS=  1040.
 NGot=   671088640 LenX=   663277371 LenY=   659402379
 Requested convergence on RMS density matrix=1.00D-08 within 128 cycles.
 Requested convergence on MAX density matrix=1.00D-06.
 Requested convergence on             energy=1.00D-06.
 No special actions if energy rises.
 Fock matrices will be formed incrementally for  20 cycles.
 Integral accuracy reduced to 1.0D-05 until final iterations.

 Cycle   1  Pass 0  IDiag  1:
 FoFJK:  IHMeth= 1 ICntrl=       0 DoSepK=F KAlg= 0 I1Cent=           0 FoldK=F
 IRaf= 420000000 NMat=       1 IRICut=       1 DoRegI=T DoRafI=F ISym2E= 0 IDoP0=0 IntGTp=1.
 FoFCou: FMM=T IPFlag=           0 FMFlag=      100000 FMFlg1=        2001
         NFxFlg=           0 DoJE=F BraDBF=F KetDBF=F FulRan=T
         wScrn=  0.000000 ICntrl=         0 IOpCl=  0 I1Cent=           0 NGrid=           0
         NMat0=    1 NMatS0=      1 NMatT0=    0 NMatD0=    1 NMtDS0=    0 NMtDT0=    0
 Symmetry not used in FoFCou.
 FMM levels:  10  Number of levels for PrismC:   9
 E= -1677.86298410090    
 DIIS: error= 3.78D-02 at cycle   1 NSaved=   1.
 NSaved= 1 IEnMin= 1 EnMin= -1677.86298410090     IErMin= 1 ErrMin= 3.78D-02
 ErrMax= 3.78D-02  0.00D+00 EMaxC= 1.00D-01 BMatC= 1.45D+00 BMatP= 1.45D+00
 IDIUse=3 WtCom= 6.22D-01 WtEn= 3.78D-01
 Coeff-Com:  0.100D+01
 Coeff-En:   0.100D+01
 Coeff:      0.100D+01
 Gap=     0.192 Goal=   None    Shift=    0.000
 GapD=    0.192 DampG=1.000 DampE=0.500 DampFc=0.5000 IDamp=-1.
 Damping current iteration by 5.00D-01
 RMSDP=5.77D+01 MaxDP=1.27D+04              OVMax= 9.97D-01

 Problem detected with inexpensive integrals.
 Switching to full accuracy and repeating last cycle.
 Cycle   2  Pass 1  IDiag  1:
 E= -1677.86290127310     Delta-E=        0.000082827793 Rises=F Damp=F
 DIIS: error= 3.78D-02 at cycle   1 NSaved=   1.
 NSaved= 1 IEnMin= 1 EnMin= -1677.86290127310     IErMin= 1 ErrMin= 3.78D-02
 ErrMax= 3.78D-02  0.00D+00 EMaxC= 1.00D-01 BMatC= 1.45D+00 BMatP= 1.45D+00
 IDIUse=3 WtCom= 6.22D-01 WtEn= 3.78D-01
 Coeff-Com:  0.100D+01
 Coeff-En:   0.100D+01
 Coeff:      0.100D+01
 Gap=     0.192 Goal=   None    Shift=    0.000
 GapD=    0.192 DampG=1.000 DampE=0.500 DampFc=0.5000 IDamp=-1.
 Damping current iteration by 5.00D-01
 RMSDP=1.64D-03 MaxDP=2.98D-01 DE= 8.28D-05 OVMax= 2.14D-01

 Cycle   3  Pass 1  IDiag  1:
 RMSU=  8.10D-04    CP:  9.67D-01
 E= -1678.54950073616     Delta-E=       -0.686599463054 Rises=F Damp=T
 DIIS: error= 5.02D-03 at cycle   2 NSaved=   2.
 NSaved= 2 IEnMin= 2 EnMin= -1678.54950073616     IErMin= 2 ErrMin= 5.02D-03
 ErrMax= 5.02D-03  0.00D+00 EMaxC= 1.00D-01 BMatC= 6.92D-02 BMatP= 1.45D+00
 IDIUse=3 WtCom= 9.50D-01 WtEn= 5.02D-02
 Coeff-Com:  0.842D-02 0.992D+00
 Coeff-En:   0.518D-01 0.948D+00
 Coeff:      0.106D-01 0.989D+00
 Gap=     0.275 Goal=   None    Shift=    0.000
 GapD=    0.275 DampG=1.000 DampE=1.000 DampFc=1.0000 IDamp=-1.
 RMSDP=4.87D-04 MaxDP=5.28D-02 DE=-6.87D-01 OVMax= 1.18D-01

 Cycle   4  Pass 1  IDiag  1:
 RMSU=  3.99D-04    CP:  9.57D-01  6.58D-01
 E= -1679.32842875336     Delta-E=       -0.778928017204 Rises=F Damp=F
 DIIS: error= 3.20D-03 at cycle   3 NSaved=   3.
 NSaved= 3 IEnMin= 3 EnMin= -1679.32842875336     IErMin= 3 ErrMin= 3.20D-03
 ErrMax= 3.20D-03  0.00D+00 EMaxC= 1.00D-01 BMatC= 1.07D-02 BMatP= 6.92D-02
 IDIUse=3 WtCom= 9.68D-01 WtEn= 3.20D-02
 Coeff-Com: -0.432D-01 0.223D+00 0.820D+00
 Coeff-En:   0.000D+00 0.000D+00 0.100D+01
 Coeff:     -0.418D-01 0.216D+00 0.826D+00
 Gap=     0.191 Goal=   None    Shift=    0.000
 RMSDP=1.34D-04 MaxDP=1.79D-02 DE=-7.79D-01 OVMax= 3.63D-02

 Cycle   5  Pass 1  IDiag  1:
 RMSU=  1.14D-04    CP:  9.54D-01  7.28D-01  8.99D-01
 E= -1679.33511643709     Delta-E=       -0.006687683724 Rises=F Damp=F
 DIIS: error= 3.25D-03 at cycle   4 NSaved=   4.
 NSaved= 4 IEnMin= 4 EnMin= -1679.33511643709     IErMin= 3 ErrMin= 3.20D-03
 ErrMax= 3.25D-03  0.00D+00 EMaxC= 1.00D-01 BMatC= 4.31D-03 BMatP= 1.07D-02
 IDIUse=3 WtCom= 9.67D-01 WtEn= 3.25D-02
 Coeff-Com: -0.237D-01 0.858D-01 0.459D+00 0.478D+00
 Coeff-En:   0.000D+00 0.000D+00 0.249D+00 0.751D+00
 Coeff:     -0.229D-01 0.830D-01 0.453D+00 0.487D+00
 Gap=     0.194 Goal=   None    Shift=    0.000
 RMSDP=6.11D-05 MaxDP=9.59D-03 DE=-6.69D-03 OVMax= 2.95D-02

 Cycle   6  Pass 1  IDiag  1:
 RMSU=  3.64D-05    CP:  9.53D-01  7.07D-01  9.44D-01  6.30D-01
 E= -1679.33870779988     Delta-E=       -0.003591362794 Rises=F Damp=F
 DIIS: error= 1.55D-03 at cycle   5 NSaved=   5.
 NSaved= 5 IEnMin= 5 EnMin= -1679.33870779988     IErMin= 5 ErrMin= 1.55D-03
 ErrMax= 1.55D-03  0.00D+00 EMaxC= 1.00D-01 BMatC= 7.97D-04 BMatP= 4.31D-03
 IDIUse=3 WtCom= 9.85D-01 WtEn= 1.55D-02
 Coeff-Com: -0.756D-02 0.176D-01 0.160D+00 0.317D+00 0.514D+00
 Coeff-En:   0.000D+00 0.000D+00 0.000D+00 0.180D+00 0.820D+00
 Coeff:     -0.744D-02 0.173D-01 0.157D+00 0.315D+00 0.518D+00
 Gap=     0.193 Goal=   None    Shift=    0.000
 RMSDP=2.37D-05 MaxDP=8.31D-03 DE=-3.59D-03 OVMax= 1.04D-02

 Cycle   7  Pass 1  IDiag  1:
 RMSU=  1.22D-05    CP:  9.53D-01  7.14D-01  9.42D-01  6.82D-01  4.88D-01
 E= -1679.33949609073     Delta-E=       -0.000788290851 Rises=F Damp=F
 DIIS: error= 2.68D-04 at cycle   6 NSaved=   6.
 NSaved= 6 IEnMin= 6 EnMin= -1679.33949609073     IErMin= 6 ErrMin= 2.68D-04
 ErrMax= 2.68D-04  0.00D+00 EMaxC= 1.00D-01 BMatC= 5.08D-05 BMatP= 7.97D-04
 IDIUse=3 WtCom= 9.97D-01 WtEn= 2.68D-03
 Coeff-Com: -0.251D-02 0.400D-02 0.577D-01 0.145D+00 0.301D+00 0.495D+00
 Coeff-En:   0.000D+00 0.000D+00 0.000D+00 0.000D+00 0.000D+00 0.100D+01
 Coeff:     -0.250D-02 0.398D-02 0.576D-01 0.145D+00 0.300D+00 0.496D+00
 Gap=     0.193 Goal=   None    Shift=    0.000
 RMSDP=5.35D-06 MaxDP=5.26D-04 DE=-7.88D-04 OVMax= 1.87D-03

 Cycle   8  Pass 1  IDiag  1:
 RMSU=  3.27D-06    CP:  9.53D-01  7.12D-01  9.46D-01  6.79D-01  5.43D-01
                    CP:  7.27D-01
 E= -1679.33954811483     Delta-E=       -0.000052024100 Rises=F Damp=F
 DIIS: error= 5.68D-05 at cycle   7 NSaved=   7.
 NSaved= 7 IEnMin= 7 EnMin= -1679.33954811483     IErMin= 7 ErrMin= 5.68D-05
 ErrMax= 5.68D-05  0.00D+00 EMaxC= 1.00D-01 BMatC= 1.43D-06 BMatP= 5.08D-05
 IDIUse=1 WtCom= 1.00D+00 WtEn= 0.00D+00
 Coeff-Com: -0.337D-03 0.114D-03 0.105D-01 0.331D-01 0.781D-01 0.197D+00
 Coeff-Com:  0.681D+00
 Coeff:     -0.337D-03 0.114D-03 0.105D-01 0.331D-01 0.781D-01 0.197D+00
 Coeff:      0.681D+00
 Gap=     0.193 Goal=   None    Shift=    0.000
 RMSDP=1.17D-06 MaxDP=2.12D-04 DE=-5.20D-05 OVMax= 5.65D-04

 Cycle   9  Pass 1  IDiag  1:
 RMSU=  1.07D-06    CP:  9.53D-01  7.12D-01  9.46D-01  6.82D-01  5.45D-01
                    CP:  7.37D-01  9.17D-01
 E= -1679.33954894378     Delta-E=       -0.000000828948 Rises=F Damp=F
 DIIS: error= 4.61D-05 at cycle   8 NSaved=   8.
 NSaved= 8 IEnMin= 8 EnMin= -1679.33954894378     IErMin= 8 ErrMin= 4.61D-05
 ErrMax= 4.61D-05  0.00D+00 EMaxC= 1.00D-01 BMatC= 6.13D-07 BMatP= 1.43D-06
 IDIUse=1 WtCom= 1.00D+00 WtEn= 0.00D+00
 Coeff-Com:  0.629D-04-0.377D-03 0.505D-03 0.582D-02 0.180D-01 0.749D-01
 Coeff-Com:  0.442D+00 0.459D+00
 Coeff:      0.629D-04-0.377D-03 0.505D-03 0.582D-02 0.180D-01 0.749D-01
 Coeff:      0.442D+00 0.459D+00
 Gap=     0.193 Goal=   None    Shift=    0.000
 RMSDP=5.40D-07 MaxDP=5.11D-05 DE=-8.29D-07 OVMax= 3.05D-04

 Cycle  10  Pass 1  IDiag  1:
 RMSU=  3.48D-07    CP:  9.53D-01  7.12D-01  9.46D-01  6.82D-01  5.43D-01
                    CP:  7.41D-01  9.43D-01  6.39D-01
 E= -1679.33954960454     Delta-E=       -0.000000660760 Rises=F Damp=F
 DIIS: error= 1.00D-05 at cycle   9 NSaved=   9.
 NSaved= 9 IEnMin= 9 EnMin= -1679.33954960454     IErMin= 9 ErrMin= 1.00D-05
 ErrMax= 1.00D-05  0.00D+00 EMaxC= 1.00D-01 BMatC= 2.80D-08 BMatP= 6.13D-07
 IDIUse=1 WtCom= 1.00D+00 WtEn= 0.00D+00
 Coeff-Com:  0.687D-04-0.212D-03-0.875D-03-0.544D-03 0.597D-03 0.165D-01
 Coeff-Com:  0.146D+00 0.233D+00 0.606D+00
 Coeff:      0.687D-04-0.212D-03-0.875D-03-0.544D-03 0.597D-03 0.165D-01
 Coeff:      0.146D+00 0.233D+00 0.606D+00
 Gap=     0.193 Goal=   None    Shift=    0.000
 RMSDP=1.39D-07 MaxDP=4.54D-05 DE=-6.61D-07 OVMax= 5.34D-05

 Cycle  11  Pass 1  IDiag  1:
 RMSU=  8.62D-08    CP:  9.53D-01  7.12D-01  9.46D-01  6.82D-01  5.43D-01
                    CP:  7.44D-01  9.58D-01  6.88D-01  7.93D-01
 E= -1679.33954963208     Delta-E=       -0.000000027540 Rises=F Damp=F
 DIIS: error= 1.77D-06 at cycle  10 NSaved=  10.
 NSaved=10 IEnMin=10 EnMin= -1679.33954963208     IErMin=10 ErrMin= 1.77D-06
 ErrMax= 1.77D-06  0.00D+00 EMaxC= 1.00D-01 BMatC= 2.73D-09 BMatP= 2.80D-08
 IDIUse=1 WtCom= 1.00D+00 WtEn= 0.00D+00
 Coeff-Com:  0.297D-04-0.785D-04-0.493D-03-0.729D-03-0.113D-02 0.264D-02
 Coeff-Com:  0.402D-01 0.845D-01 0.315D+00 0.560D+00
 Coeff:      0.297D-04-0.785D-04-0.493D-03-0.729D-03-0.113D-02 0.264D-02
 Coeff:      0.402D-01 0.845D-01 0.315D+00 0.560D+00
 Gap=     0.193 Goal=   None    Shift=    0.000
 RMSDP=3.63D-08 MaxDP=6.59D-06 DE=-2.75D-08 OVMax= 1.18D-05

 Cycle  12  Pass 1  IDiag  1:
 RMSU=  2.26D-08    CP:  9.53D-01  7.12D-01  9.46D-01  6.82D-01  5.42D-01
                    CP:  7.45D-01  9.58D-01  6.84D-01  8.07D-01  7.77D-01
 E= -1679.33954963472     Delta-E=       -0.000000002643 Rises=F Damp=F
 DIIS: error= 3.34D-07 at cycle  11 NSaved=  11.
 NSaved=11 IEnMin=11 EnMin= -1679.33954963472     IErMin=11 ErrMin= 3.34D-07
 ErrMax= 3.34D-07  0.00D+00 EMaxC= 1.00D-01 BMatC= 7.50D-11 BMatP= 2.73D-09
 IDIUse=1 WtCom= 1.00D+00 WtEn= 0.00D+00
 Coeff-Com:  0.465D-05-0.120D-04-0.994D-04-0.176D-03-0.347D-03-0.565D-04
 Coeff-Com:  0.423D-02 0.134D-01 0.677D-01 0.195D+00 0.721D+00
 Coeff:      0.465D-05-0.120D-04-0.994D-04-0.176D-03-0.347D-03-0.565D-04
 Coeff:      0.423D-02 0.134D-01 0.677D-01 0.195D+00 0.721D+00
 Gap=     0.193 Goal=   None    Shift=    0.000
 RMSDP=7.96D-09 MaxDP=1.49D-06 DE=-2.64D-09 OVMax= 1.87D-06

 Cycle  13  Pass 1  IDiag  1:
 RMSU=  6.26D-09    CP:  9.53D-01  7.12D-01  9.46D-01  6.82D-01  5.42D-01
                    CP:  7.45D-01  9.59D-01  6.86D-01  8.07D-01  7.72D-01
                    CP:  8.49D-01
 E= -1679.33954963474     Delta-E=       -0.000000000015 Rises=F Damp=F
 DIIS: error= 1.20D-07 at cycle  12 NSaved=  12.
 NSaved=12 IEnMin=12 EnMin= -1679.33954963474     IErMin=12 ErrMin= 1.20D-07
 ErrMax= 1.20D-07  0.00D+00 EMaxC= 1.00D-01 BMatC= 1.31D-11 BMatP= 7.50D-11
 IDIUse=1 WtCom= 1.00D+00 WtEn= 0.00D+00
 Coeff-Com:  0.678D-07-0.279D-06-0.132D-04-0.327D-04-0.877D-04-0.226D-03
 Coeff-Com: -0.915D-03 0.290D-03 0.101D-01 0.528D-01 0.359D+00 0.579D+00
 Coeff:      0.678D-07-0.279D-06-0.132D-04-0.327D-04-0.877D-04-0.226D-03
 Coeff:     -0.915D-03 0.290D-03 0.101D-01 0.528D-01 0.359D+00 0.579D+00
 Gap=     0.193 Goal=   None    Shift=    0.000
 RMSDP=2.48D-09 MaxDP=3.40D-07 DE=-1.55D-11 OVMax= 6.65D-07

 SCF Done:  E(RPBE1PBE) =  -1679.33954963     A.U. after   13 cycles
            NFock= 13  Conv=0.25D-08     -V/T= 2.0053
 KE= 1.670455805114D+03 PE=-1.241443765417D+04 EE= 4.802843050664D+03
 Leave Link  502 at Thu Oct 26 15:57:26 2023, MaxMem=   671088640 cpu:           25549.7 elap:            1080.9
 (Enter /usr/g16/l801.exe)
 DoSCS=F DFT=T ScalE2(SS,OS)=  1.000000  1.000000
 ExpMin= 9.52D-02 ExpMax= 1.36D+04 ExpMxC= 4.63D+02 IAcc=3 IRadAn=         5 AccDes= 0.00D+00
 HarFok:  IExCor=  205 AccDes= 0.00D+00 IRadAn=         5 IDoV=-2 UseB2=F ITyADJ=14
 ICtDFT= 12500011 ScaDFX=  1.000000  1.000000  1.000000  1.000000
 GSVD:  LWork=       -2193 too small for GESVD, short by        9890 words or        9890 for optimal perf.
 Largest valence mixing into a core orbital is  6.96D-05
 Largest core mixing into a valence orbital is  2.29D-05
 Range of M.O.s used for correlation:    44  1753
 NBasis=  1753 NAE=   164 NBE=   164 NFC=    43 NFV=     0
 NROrb=   1710 NOA=   121 NOB=   121 NVA=  1589 NVB=  1589

 **** Warning!!: The largest alpha MO coefficient is  0.90894638D+02

 Leave Link  801 at Thu Oct 26 15:57:27 2023, MaxMem=   671088640 cpu:              10.8 elap:               0.5
 (Enter /usr/g16/l914.exe)
 RHF ground state
 Two-electron integrals replicated using symmetry.
 MDV=   671088640 DFT=T DoStab=F Mixed=T DoRPA=T DoScal=F NonHer=T
 Making orbital integer symmetry assigments:
 Orbital symmetries:
       Occupied  (A) (A) (A) (A) (A) (A) (A) (A) (A) (A) (A) (A)
                 (A) (A) (A) (A) (A) (A) (A) (A) (A) (A) (A) (A)
                 (A) (A) (A) (A) (A) (A) (A) (A) (A) (A) (A) (A)
                 (A) (A) (A) (A) (A) (A) (A) (A) (A) (A) (A) (A)
                 (A) (A) (A) (A) (A) (A) (A) (A) (A) (A) (A) (A)
                 (A) (A) (A) (A) (A) (A) (A) (A) (A) (A) (A) (A)
                 (A) (A) (A) (A) (A) (A) (A) (A) (A) (A) (A) (A)
                 (A) (A) (A) (A) (A) (A) (A) (A) (A) (A) (A) (A)
                 (A) (A) (A) (A) (A) (A) (A) (A) (A) (A) (A) (A)
                 (A) (A) (A) (A) (A) (A) (A) (A) (A) (A) (A) (A)
                 (A) (A) (A) (A) (A) (A) (A) (A) (A) (A) (A) (A)
                 (A) (A) (A) (A) (A) (A) (A) (A) (A) (A) (A) (A)
                 (A) (A) (A) (A) (A) (A) (A) (A) (A) (A) (A) (A)
                 (A) (A) (A) (A) (A) (A) (A) (A)
       Virtual   (A) (A) (A) (A) (A) (A) (A) (A) (A) (A) (A) (A)
                 (A) (A) (A) (A) (A) (A) (A) (A) (A) (A) (A) (A)
                 (A) (A) (A) (A) (A) (A) (A) (A) (A) (A) (A) (A)
                 (A) (A) (A) (A) (A) (A) (A) (A) (A) (A) (A) (A)
                 (A) (A) (A) (A) (A) (A) (A) (A) (A) (A) (A) (A)
                 (A) (A) (A) (A) (A) (A) (A) (A) (A) (A) (A) (A)
                 (A) (A) (A) (A) (A) (A) (A) (A) (A) (A) (A) (A)
                 (A) (A) (A) (A) (A) (A) (A) (A) (A) (A) (A) (A)
                 (A) (A) (A) (A) (A) (A) (A) (A) (A) (A) (A) (A)
                 (A) (A) (A) (A) (A) (A) (A) (A) (A) (A) (A) (A)
                 (A) (A) (A) (A) (A) (A) (A) (A) (A) (A) (A) (A)
                 (A) (A) (A) (A) (A) (A) (A) (A) (A) (A) (A) (A)
                 (A) (A) (A) (A) (A) (A) (A) (A) (A) (A) (A) (A)
                 (A) (A) (A) (A) (A) (A) (A) (A) (A) (A) (A) (A)
                 (A) (A) (A) (A) (A) (A) (A) (A) (A) (A) (A) (A)
                 (A) (A) (A) (A) (A) (A) (A) (A) (A) (A) (A) (A)
                 (A) (A) (A) (A) (A) (A) (A) (A) (A) (A) (A) (A)
                 (A) (A) (A) (A) (A) (A) (A) (A) (A) (A) (A) (A)
                 (A) (A) (A) (A) (A) (A) (A) (A) (A) (A) (A) (A)
                 (A) (A) (A) (A) (A) (A) (A) (A) (A) (A) (A) (A)
                 (A) (A) (A) (A) (A) (A) (A) (A) (A) (A) (A) (A)
                 (A) (A) (A) (A) (A) (A) (A) (A) (A) (A) (A) (A)
                 (A) (A) (A) (A) (A) (A) (A) (A) (A) (A) (A) (A)
                 (A) (A) (A) (A) (A) (A) (A) (A) (A) (A) (A) (A)
                 (A) (A) (A) (A) (A) (A) (A) (A) (A) (A) (A) (A)
                 (A) (A) (A) (A) (A) (A) (A) (A) (A) (A) (A) (A)
                 (A) (A) (A) (A) (A) (A) (A) (A) (A) (A) (A) (A)
                 (A) (A) (A) (A) (A) (A) (A) (A) (A) (A) (A) (A)
                 (A) (A) (A) (A) (A) (A) (A) (A) (A) (A) (A) (A)
                 (A) (A) (A) (A) (A) (A) (A) (A) (A) (A) (A) (A)
                 (A) (A) (A) (A) (A) (A) (A) (A) (A) (A) (A) (A)
                 (A) (A) (A) (A) (A) (A) (A) (A) (A) (A) (A) (A)
                 (A) (A) (A) (A) (A) (A) (A) (A) (A) (A) (A) (A)
                 (A) (A) (A) (A) (A) (A) (A) (A) (A) (A) (A) (A)
                 (A) (A) (A) (A) (A) (A) (A) (A) (A) (A) (A) (A)
                 (A) (A) (A) (A) (A) (A) (A) (A) (A) (A) (A) (A)
                 (A) (A) (A) (A) (A) (A) (A) (A) (A) (A) (A) (A)
                 (A) (A) (A) (A) (A) (A) (A) (A) (A) (A) (A) (A)
                 (A) (A) (A) (A) (A) (A) (A) (A) (A) (A) (A) (A)
                 (A) (A) (A) (A) (A) (A) (A) (A) (A) (A) (A) (A)
                 (A) (A) (A) (A) (A) (A) (A) (A) (A) (A) (A) (A)
                 (A) (A) (A) (A) (A) (A) (A) (A) (A) (A) (A) (A)
                 (A) (A) (A) (A) (A) (A) (A) (A) (A) (A) (A) (A)
                 (A) (A) (A) (A) (A) (A) (A) (A) (A) (A) (A) (A)
                 (A) (A) (A) (A) (A) (A) (A) (A) (A) (A) (A) (A)
                 (A) (A) (A) (A) (A) (A) (A) (A) (A) (A) (A) (A)
                 (A) (A) (A) (A) (A) (A) (A) (A) (A) (A) (A) (A)
                 (A) (A) (A) (A) (A) (A) (A) (A) (A) (A) (A) (A)
                 (A) (A) (A) (A) (A) (A) (A) (A) (A) (A) (A) (A)
                 (A) (A) (A) (A) (A) (A) (A) (A) (A) (A) (A) (A)
                 (A) (A) (A) (A) (A) (A) (A) (A) (A) (A) (A) (A)
                 (A) (A) (A) (A) (A) (A) (A) (A) (A) (A) (A) (A)
                 (A) (A) (A) (A) (A) (A) (A) (A) (A) (A) (A) (A)
                 (A) (A) (A) (A) (A) (A) (A) (A) (A) (A) (A) (A)
                 (A) (A) (A) (A) (A) (A) (A) (A) (A) (A) (A) (A)
                 (A) (A) (A) (A) (A) (A) (A) (A) (A) (A) (A) (A)
                 (A) (A) (A) (A) (A) (A) (A) (A) (A) (A) (A) (A)
                 (A) (A) (A) (A) (A) (A) (A) (A) (A) (A) (A) (A)
                 (A) (A) (A) (A) (A) (A) (A) (A) (A) (A) (A) (A)
                 (A) (A) (A) (A) (A) (A) (A) (A) (A) (A) (A) (A)
                 (A) (A) (A) (A) (A) (A) (A) (A) (A) (A) (A) (A)
                 (A) (A) (A) (A) (A) (A) (A) (A) (A) (A) (A) (A)
                 (A) (A) (A) (A) (A) (A) (A) (A) (A) (A) (A) (A)
                 (A) (A) (A) (A) (A) (A) (A) (A) (A) (A) (A) (A)
                 (A) (A) (A) (A) (A) (A) (A) (A) (A) (A) (A) (A)
                 (A) (A) (A) (A) (A) (A) (A) (A) (A) (A) (A) (A)
                 (A) (A) (A) (A) (A) (A) (A) (A) (A) (A) (A) (A)
                 (A) (A) (A) (A) (A) (A) (A) (A) (A) (A) (A) (A)
                 (A) (A) (A) (A) (A) (A) (A) (A) (A) (A) (A) (A)
                 (A) (A) (A) (A) (A) (A) (A) (A) (A) (A) (A) (A)
                 (A) (A) (A) (A) (A) (A) (A) (A) (A) (A) (A) (A)
                 (A) (A) (A) (A) (A) (A) (A) (A) (A) (A) (A) (A)
                 (A) (A) (A) (A) (A) (A) (A) (A) (A) (A) (A) (A)
                 (A) (A) (A) (A) (A) (A) (A) (A) (A) (A) (A) (A)
                 (A) (A) (A) (A) (A) (A) (A) (A) (A) (A) (A) (A)
                 (A) (A) (A) (A) (A) (A) (A) (A) (A) (A) (A) (A)
                 (A) (A) (A) (A) (A) (A) (A) (A) (A) (A) (A) (A)
                 (A) (A) (A) (A) (A) (A) (A) (A) (A) (A) (A) (A)
                 (A) (A) (A) (A) (A) (A) (A) (A) (A) (A) (A) (A)
                 (A) (A) (A) (A) (A) (A) (A) (A) (A) (A) (A) (A)
                 (A) (A) (A) (A) (A) (A) (A) (A) (A) (A) (A) (A)
                 (A) (A) (A) (A) (A) (A) (A) (A) (A) (A) (A) (A)
                 (A) (A) (A) (A) (A) (A) (A) (A) (A) (A) (A) (A)
                 (A) (A) (A) (A) (A) (A) (A) (A) (A) (A) (A) (A)
                 (A) (A) (A) (A) (A) (A) (A) (A) (A) (A) (A) (A)
                 (A) (A) (A) (A) (A) (A) (A) (A) (A) (A) (A) (A)
                 (A) (A) (A) (A) (A) (A) (A) (A) (A) (A) (A) (A)
                 (A) (A) (A) (A) (A) (A) (A) (A) (A) (A) (A) (A)
                 (A) (A) (A) (A) (A) (A) (A) (A) (A) (A) (A) (A)
                 (A) (A) (A) (A) (A) (A) (A) (A) (A) (A) (A) (A)
                 (A) (A) (A) (A) (A) (A) (A) (A) (A) (A) (A) (A)
                 (A) (A) (A) (A) (A) (A) (A) (A) (A) (A) (A) (A)
                 (A) (A) (A) (A) (A) (A) (A) (A) (A) (A) (A) (A)
                 (A) (A) (A) (A) (A) (A) (A) (A) (A) (A) (A) (A)
                 (A) (A) (A) (A) (A) (A) (A) (A) (A) (A) (A) (A)
                 (A) (A) (A) (A) (A) (A) (A) (A) (A) (A) (A) (A)
                 (A) (A) (A) (A) (A) (A) (A) (A) (A) (A) (A) (A)
                 (A) (A) (A) (A) (A) (A) (A) (A) (A) (A) (A) (A)
                 (A) (A) (A) (A) (A) (A) (A) (A) (A) (A) (A) (A)
                 (A) (A) (A) (A) (A) (A) (A) (A) (A) (A) (A) (A)
                 (A) (A) (A) (A) (A) (A) (A) (A) (A) (A) (A) (A)
                 (A) (A) (A) (A) (A) (A) (A) (A) (A) (A) (A) (A)
                 (A) (A) (A) (A) (A) (A) (A) (A) (A) (A) (A) (A)
                 (A) (A) (A) (A) (A) (A) (A) (A) (A) (A) (A) (A)
                 (A) (A) (A) (A) (A) (A) (A) (A) (A) (A) (A) (A)
                 (A) (A) (A) (A) (A) (A) (A) (A) (A) (A) (A) (A)
                 (A) (A) (A) (A) (A) (A) (A) (A) (A) (A) (A) (A)
                 (A) (A) (A) (A) (A) (A) (A) (A) (A) (A) (A) (A)
                 (A) (A) (A) (A) (A) (A) (A) (A) (A) (A) (A) (A)
                 (A) (A) (A) (A) (A) (A) (A) (A) (A) (A) (A) (A)
                 (A) (A) (A) (A) (A) (A) (A) (A) (A) (A) (A) (A)
                 (A) (A) (A) (A) (A) (A) (A) (A) (A) (A) (A) (A)
                 (A) (A) (A) (A) (A) (A) (A) (A) (A) (A) (A) (A)
                 (A) (A) (A) (A) (A) (A) (A) (A) (A) (A) (A) (A)
                 (A) (A) (A) (A) (A) (A) (A) (A) (A) (A) (A) (A)
                 (A) (A) (A) (A) (A) (A) (A) (A) (A) (A) (A) (A)
                 (A) (A) (A) (A) (A) (A) (A) (A) (A) (A) (A) (A)
                 (A) (A) (A) (A) (A) (A) (A) (A) (A) (A) (A) (A)
                 (A) (A) (A) (A) (A) (A) (A) (A) (A) (A) (A) (A)
                 (A) (A) (A) (A) (A) (A) (A) (A) (A) (A) (A) (A)
                 (A) (A) (A) (A) (A) (A) (A) (A) (A) (A) (A) (A)
                 (A) (A) (A) (A) (A) (A) (A) (A) (A) (A) (A) (A)
                 (A) (A) (A) (A) (A) (A) (A) (A) (A) (A) (A) (A)
                 (A) (A) (A) (A) (A) (A) (A) (A) (A) (A) (A) (A)
                 (A) (A) (A) (A) (A) (A) (A) (A) (A) (A) (A) (A)
                 (A) (A) (A) (A) (A) (A) (A) (A) (A) (A) (A) (A)
                 (A) (A) (A) (A) (A) (A) (A) (A) (A) (A) (A) (A)
                 (A) (A) (A) (A) (A) (A) (A) (A) (A) (A) (A) (A)
                 (A) (A) (A) (A) (A) (A) (A) (A) (A) (A) (A) (A)
                 (A) (A) (A) (A) (A) (A) (A) (A) (A) (A) (A) (A)
                 (A) (A) (A) (A) (A) (A) (A) (A) (A) (A) (A) (A)
                 (A) (A) (A) (A) (A) (A) (A) (A) (A) (A) (A) (A)
                 (A) (A) (A) (A) (A)
    80 initial guesses have been made.
 Convergence on wavefunction:    0.001000000000000
 Davidson Disk Diagonalization:  ConvIn= 1.00D-03 SkipCon=T Conv= 1.00D-03.
 Max sub-space:  2000 roots to seek:    80 dimension of matrix:       384538
 Iteration     1 Dimension    80 NMult     0 NNew     80
 CISAX will form     3 AO SS matrices at one time.
 NMat=     3 NSing=     3 JSym2X= 0.
 FoFJK:  IHMeth= 1 ICntrl=       0 DoSepK=F KAlg= 0 I1Cent=           0 FoldK=F
 IRaf= 420000000 NMat=       6 IRICut=       1 DoRegI=T DoRafI=F ISym2E= 0 IDoP0=0 IntGTp=1.
 FoFCou: FMM=T IPFlag=           0 FMFlag=      100000 FMFlg1=        2001
         NFxFlg=           0 DoJE=F BraDBF=F KetDBF=F FulRan=T
         wScrn=  0.000000 ICntrl=         0 IOpCl=  0 I1Cent=           0 NGrid=           0
         NMat0=    6 NMatS0=      3 NMatT0=    0 NMatD0=    6 NMtDS0=    0 NMtDT0=    0
 Symmetry not used in FoFCou.
 FMM levels:  10  Number of levels for PrismC:   9
 NMat=     3 NSing=     3 JSym2X= 0.
 NMat=     3 NSing=     3 JSym2X= 0.
 NMat=     3 NSing=     3 JSym2X= 0.
 NMat=     3 NSing=     3 JSym2X= 0.
 NMat=     3 NSing=     3 JSym2X= 0.
 NMat=     3 NSing=     3 JSym2X= 0.
 NMat=     3 NSing=     3 JSym2X= 0.
 NMat=     3 NSing=     3 JSym2X= 0.
 NMat=     3 NSing=     3 JSym2X= 0.
 NMat=     3 NSing=     3 JSym2X= 0.
 NMat=     3 NSing=     3 JSym2X= 0.
 NMat=     3 NSing=     3 JSym2X= 0.
 NMat=     3 NSing=     3 JSym2X= 0.
 NMat=     3 NSing=     3 JSym2X= 0.
 NMat=     3 NSing=     3 JSym2X= 0.
 NMat=     3 NSing=     3 JSym2X= 0.
 NMat=     3 NSing=     3 JSym2X= 0.
 NMat=     3 NSing=     3 JSym2X= 0.
 NMat=     3 NSing=     3 JSym2X= 0.
 NMat=     3 NSing=     3 JSym2X= 0.
 NMat=     3 NSing=     3 JSym2X= 0.
 NMat=     3 NSing=     3 JSym2X= 0.
 NMat=     3 NSing=     3 JSym2X= 0.
 NMat=     3 NSing=     3 JSym2X= 0.
 NMat=     3 NSing=     3 JSym2X= 0.
 NMat=     2 NSing=     2 JSym2X= 0.
 New state      1 was old state      2
 New state      2 was old state      3
 New state      3 was old state      1
 New state      4 was old state      6
 New state      5 was old state      4
 New state      6 was old state      7
 New state      7 was old state      8
 New state      8 was old state     12
 New state      9 was old state     13
 New state     11 was old state     23
 New state     12 was old state     26
 New state     13 was old state     55
 New state     14 was old state     11
 New state     16 was old state     19
 New state     17 was old state     18
 New state     18 was old state     31
 New state     19 was old state     44
 New state     20 was old state     36
 Excitation Energies [eV] at current iteration:
 Root      1 :     4.715583481657299
 Root      2 :     5.041495346732761
 Root      3 :     5.268864187638451
 Root      4 :     5.913451204876191
 Root      5 :     5.994996240180200
 Root      6 :     6.098889681287795
 Root      7 :     6.185503042625126
 Root      8 :     6.372210029716456
 Root      9 :     6.518098902035205
 Root     10 :     6.558303508180908
 Root     11 :     6.666938497817981
 Root     12 :     6.723808932723752
 Root     13 :     6.799795836078776
 Root     14 :     6.852346840933470
 Root     15 :     6.957605184642432
 Root     16 :     6.961956678010870
 Root     17 :     6.992731794072213
 Root     18 :     7.036011603967418
 Root     19 :     7.052962990798910
 Root     20 :     7.058092863271789
 Root     21 :     7.085093306444898
 Root     22 :     7.153622943775610
 Root     23 :     7.175180570061398
 Root     24 :     7.202588893162602
 Root     25 :     7.252744600974935
 Root     26 :     7.252901729055561
 Root     27 :     7.279695168498510
 Root     28 :     7.295296355037123
 Root     29 :     7.315150692546106
 Root     30 :     7.320358721246273
 Root     31 :     7.335465412604496
 Root     32 :     7.371004329155563
 Root     33 :     7.382405848903131
 Root     34 :     7.395408158413564
 Root     35 :     7.442290473594240
 Root     36 :     7.450613990213286
 Root     37 :     7.470856997306872
 Root     38 :     7.477410757440325
 Root     39 :     7.526757048654727
 Root     40 :     7.527672331823282
 Root     41 :     7.542170216250831
 Root     42 :     7.575021852391112
 Root     43 :     7.620431402835669
 Root     44 :     7.624537526821770
 Root     45 :     7.641546114032322
 Root     46 :     7.653683708692800
 Root     47 :     7.671578347180893
 Root     48 :     7.687048519865075
 Root     49 :     7.700882707547490
 Root     50 :     7.706880306942240
 Root     51 :     7.735268472438065
 Root     52 :     7.737055969118104
 Root     53 :     7.787422392683528
 Root     54 :     7.790186005193890
 Root     55 :     7.795388622081447
 Root     56 :     7.806014334965960
 Root     57 :     7.812377032193274
 Root     58 :     7.819850866983572
 Root     59 :     7.848905914234059
 Root     60 :     7.875713515002603
 Root     61 :     7.883525005834683
 Root     62 :     7.886083377662331
 Root     63 :     7.888768153494267
 Root     64 :     7.966950655703505
 Root     65 :     7.981892135762882
 Root     66 :     7.983165196057621
 Root     67 :     8.004320566573142
 Root     68 :     8.011896292734438
 Root     69 :     8.020237137722891
 Root     70 :     8.026935041152104
 Root     71 :     8.034627419029299
 Root     72 :     8.035664036494166
 Root     73 :     8.054757592367105
 Root     74 :     8.058388792169726
 Root     75 :     8.072717101497133
 Root     76 :     8.128039083678155
 Root     77 :     8.183110237689707
 Root     78 :     8.477619353071050
 Root     79 :     8.858525307994583
 Root     80 :     8.982260404099918
 Iteration     2 Dimension   120 NMult    80 NNew     40
 CISAX will form     3 AO SS matrices at one time.
 NMat=     3 NSing=     3 JSym2X= 0.
 NMat=     3 NSing=     3 JSym2X= 0.
 NMat=     3 NSing=     3 JSym2X= 0.
 NMat=     3 NSing=     3 JSym2X= 0.
 NMat=     3 NSing=     3 JSym2X= 0.
 NMat=     3 NSing=     3 JSym2X= 0.
 NMat=     3 NSing=     3 JSym2X= 0.
 NMat=     3 NSing=     3 JSym2X= 0.
 NMat=     3 NSing=     3 JSym2X= 0.
 NMat=     3 NSing=     3 JSym2X= 0.
 NMat=     3 NSing=     3 JSym2X= 0.
 NMat=     3 NSing=     3 JSym2X= 0.
 NMat=     3 NSing=     3 JSym2X= 0.
 NMat=     1 NSing=     1 JSym2X= 0.
 Root      1 not converged, maximum delta is    0.231835070054154
 New state      2 was old state      3
 Root      2 not converged, maximum delta is    0.225573469837962
 New state      3 was old state      2
 Root      3 not converged, maximum delta is    0.016882519763384
 New state      4 was old state      5
 Root      4 not converged, maximum delta is    0.105435493468893
 New state      5 was old state      4
 Root      5 not converged, maximum delta is    0.145680621099401
 New state      6 was old state      7
 Root      6 not converged, maximum delta is    0.274064400051619
 New state      7 was old state      6
 Root      7 not converged, maximum delta is    0.148345925312844
 Root      8 not converged, maximum delta is    0.207462805406880
 New state      9 was old state     13
 Root      9 not converged, maximum delta is    0.313861838171097
 New state     10 was old state      9
 Root     10 not converged, maximum delta is    0.036645102835907
 New state     11 was old state     10
 Root     11 not converged, maximum delta is    0.074571261035695
 New state     12 was old state     31
 Root     12 not converged, maximum delta is    0.177913518020401
 New state     13 was old state     11
 Root     13 not converged, maximum delta is    0.080208185271883
 New state     14 was old state     12
 Root     14 not converged, maximum delta is    0.092606940325550
 New state     15 was old state     16
 Root     15 not converged, maximum delta is    0.406000866976235
 New state     16 was old state     14
 Root     16 not converged, maximum delta is    0.055870231736647
 New state     17 was old state     15
 Root     17 not converged, maximum delta is    0.063192819891020
 New state     18 was old state     17
 Root     18 not converged, maximum delta is    0.065309297248612
 New state     19 was old state     18
 Root     19 not converged, maximum delta is    0.048327829066784
 New state     20 was old state     19
 Root     20 not converged, maximum delta is    0.085609929576781
 Excitation Energies [eV] at current iteration:
 Root      1 :     4.569260380129771   Change is   -0.146323101527529
 Root      2 :     4.794137036738083   Change is   -0.474727150900368
 Root      3 :     4.966435690192654   Change is   -0.075059656540107
 Root      4 :     5.588998123778700   Change is   -0.405998116401500
 Root      5 :     5.748585143468948   Change is   -0.164866061407243
 Root      6 :     5.953087399158476   Change is   -0.232415643466650
 Root      7 :     6.025115512020969   Change is   -0.073774169266826
 Root      8 :     6.260448958510355   Change is   -0.111761071206101
 Root      9 :     6.438636026868119   Change is   -0.361159809210657
 Root     10 :     6.496444622553295   Change is   -0.021654279481911
 Root     11 :     6.513750965897187   Change is   -0.044552542283722
 Root     12 :     6.590699290089210   Change is   -0.744766122515285
 Root     13 :     6.592368509519306   Change is   -0.074569988298675
 Root     14 :     6.641727895785523   Change is   -0.082081036938228
 Root     15 :     6.738887144263228   Change is   -0.223069533747642
 Root     16 :     6.843693901837658   Change is   -0.008652939095812
 Root     17 :     6.948173893977858   Change is   -0.009431290664574
 Root     18 :     6.971110131191847   Change is   -0.021621662880366
 Root     19 :     6.987254329578160   Change is   -0.048757274389257
 Root     20 :     7.004925619745763   Change is   -0.048037371053146
 Iteration     3 Dimension   160 NMult   120 NNew     40
 CISAX will form     3 AO SS matrices at one time.
 NMat=     3 NSing=     3 JSym2X= 0.
 NMat=     3 NSing=     3 JSym2X= 0.
 NMat=     3 NSing=     3 JSym2X= 0.
 NMat=     3 NSing=     3 JSym2X= 0.
 NMat=     3 NSing=     3 JSym2X= 0.
 NMat=     3 NSing=     3 JSym2X= 0.
 NMat=     3 NSing=     3 JSym2X= 0.
 NMat=     3 NSing=     3 JSym2X= 0.
 NMat=     3 NSing=     3 JSym2X= 0.
 NMat=     3 NSing=     3 JSym2X= 0.
 NMat=     3 NSing=     3 JSym2X= 0.
 NMat=     3 NSing=     3 JSym2X= 0.
 NMat=     3 NSing=     3 JSym2X= 0.
 NMat=     1 NSing=     1 JSym2X= 0.
 Root      1 not converged, maximum delta is    0.018684793286596
 Root      2 not converged, maximum delta is    0.020029772706504
 Root      3 not converged, maximum delta is    0.003534591889150
 Root      4 not converged, maximum delta is    0.016224943785225
 Root      5 not converged, maximum delta is    0.024076588350030
 Root      6 not converged, maximum delta is    0.026324010228172
 Root      7 not converged, maximum delta is    0.028343153173064
 Root      8 not converged, maximum delta is    0.018748457591160
 Root      9 not converged, maximum delta is    0.019869926974578
 Root     10 not converged, maximum delta is    0.004631677294350
 Root     11 not converged, maximum delta is    0.024255819550467
 Root     12 not converged, maximum delta is    0.032206834722938
 Root     13 not converged, maximum delta is    0.018014011874637
 Root     14 not converged, maximum delta is    0.026985823795306
 Root     15 not converged, maximum delta is    0.031636083004008
 Root     16 not converged, maximum delta is    0.005435817300806
 Root     17 not converged, maximum delta is    0.004111069553601
 Root     18 not converged, maximum delta is    0.012402481358503
 Root     19 not converged, maximum delta is    0.006558386325886
 Root     20 not converged, maximum delta is    0.023232222055453
 Excitation Energies [eV] at current iteration:
 Root      1 :     4.556693319514276   Change is   -0.012567060615494
 Root      2 :     4.784220241958582   Change is   -0.009916794779501
 Root      3 :     4.964106843112186   Change is   -0.002328847080469
 Root      4 :     5.566493170983121   Change is   -0.022504952795579
 Root      5 :     5.732255548281662   Change is   -0.016329595187286
 Root      6 :     5.920863367637842   Change is   -0.032224031520635
 Root      7 :     6.015692447467609   Change is   -0.009423064553360
 Root      8 :     6.255058076607003   Change is   -0.005390881903352
 Root      9 :     6.423507564435566   Change is   -0.015128462432553
 Root     10 :     6.495953530725259   Change is   -0.000491091828035
 Root     11 :     6.511576170293770   Change is   -0.002174795603417
 Root     12 :     6.519450806388240   Change is   -0.071248483700971
 Root     13 :     6.584258378509078   Change is   -0.008110131010228
 Root     14 :     6.635486030837299   Change is   -0.006241864948224
 Root     15 :     6.721631854414469   Change is   -0.017255289848759
 Root     16 :     6.843290598247474   Change is   -0.000403303590184
 Root     17 :     6.947699878562554   Change is   -0.000474015415303
 Root     18 :     6.969534786063818   Change is   -0.001575345128030
 Root     19 :     6.985662068643633   Change is   -0.001592260934528
 Root     20 :     7.001701224591478   Change is   -0.003224395154286
 Iteration     4 Dimension   200 NMult   160 NNew     40
 CISAX will form     3 AO SS matrices at one time.
 NMat=     3 NSing=     3 JSym2X= 0.
 NMat=     3 NSing=     3 JSym2X= 0.
 NMat=     3 NSing=     3 JSym2X= 0.
 NMat=     3 NSing=     3 JSym2X= 0.
 NMat=     3 NSing=     3 JSym2X= 0.
 NMat=     3 NSing=     3 JSym2X= 0.
 NMat=     3 NSing=     3 JSym2X= 0.
 NMat=     3 NSing=     3 JSym2X= 0.
 NMat=     3 NSing=     3 JSym2X= 0.
 NMat=     3 NSing=     3 JSym2X= 0.
 NMat=     3 NSing=     3 JSym2X= 0.
 NMat=     3 NSing=     3 JSym2X= 0.
 NMat=     3 NSing=     3 JSym2X= 0.
 NMat=     1 NSing=     1 JSym2X= 0.
 Root      1 not converged, maximum delta is    0.001003114060985
 Root      2 not converged, maximum delta is    0.001076420508129
 Root      3 has converged.
 Root      4 not converged, maximum delta is    0.001355514985009
 Root      5 not converged, maximum delta is    0.001706460829520
 Root      6 not converged, maximum delta is    0.002207599738093
 Root      7 not converged, maximum delta is    0.002096587384566
 Root      8 not converged, maximum delta is    0.001376260104104
 Root      9 not converged, maximum delta is    0.002031581821214
 Root     10 not converged, maximum delta is    0.001047743911818
 Root     11 not converged, maximum delta is    0.007233608639537
 Root     12 not converged, maximum delta is    0.006156611148423
 Root     13 not converged, maximum delta is    0.010691379033968
 Root     14 not converged, maximum delta is    0.008981936897659
 Root     15 not converged, maximum delta is    0.003470653509869
 Root     16 not converged, maximum delta is    0.002807159275736
 Root     17 has converged.
 Root     18 not converged, maximum delta is    0.003370721046735
 Root     19 not converged, maximum delta is    0.001906569381199
 Root     20 not converged, maximum delta is    0.003272930001600
 Excitation Energies [eV] at current iteration:
 Root      1 :     4.556043934724840   Change is   -0.000649384789437
 Root      2 :     4.783670024199971   Change is   -0.000550217758611
 Root      3 :     4.963875322464882   Change is   -0.000231520647303
 Root      4 :     5.564861709451676   Change is   -0.001631461531445
 Root      5 :     5.731305083477849   Change is   -0.000950464803813
 Root      6 :     5.918254060563602   Change is   -0.002609307074239
 Root      7 :     6.015010563787426   Change is   -0.000681883680184
 Root      8 :     6.254599697867028   Change is   -0.000458378739975
 Root      9 :     6.422017443790006   Change is   -0.001490120645560
 Root     10 :     6.495911256237604   Change is   -0.000042274487656
 Root     11 :     6.511371096562228   Change is   -0.000205073731542
 Root     12 :     6.514725309947216   Change is   -0.004725496441023
 Root     13 :     6.583178519303135   Change is   -0.001079859205943
 Root     14 :     6.634809977549063   Change is   -0.000676053288237
 Root     15 :     6.719955108412597   Change is   -0.001676746001872
 Root     16 :     6.843235887373877   Change is   -0.000054710873597
 Root     17 :     6.947663612555420   Change is   -0.000036266007134
 Root     18 :     6.969387628305997   Change is   -0.000147157757821
 Root     19 :     6.985477029288479   Change is   -0.000185039355154
 Root     20 :     7.001417931640047   Change is   -0.000283292951431
 Iteration     5 Dimension   236 NMult   200 NNew     36
 CISAX will form     3 AO SS matrices at one time.
 NMat=     3 NSing=     3 JSym2X= 0.
 NMat=     3 NSing=     3 JSym2X= 0.
 NMat=     3 NSing=     3 JSym2X= 0.
 NMat=     3 NSing=     3 JSym2X= 0.
 NMat=     3 NSing=     3 JSym2X= 0.
 NMat=     3 NSing=     3 JSym2X= 0.
 NMat=     3 NSing=     3 JSym2X= 0.
 NMat=     3 NSing=     3 JSym2X= 0.
 NMat=     3 NSing=     3 JSym2X= 0.
 NMat=     3 NSing=     3 JSym2X= 0.
 NMat=     3 NSing=     3 JSym2X= 0.
 NMat=     3 NSing=     3 JSym2X= 0.
 Root      1 has converged.
 Root      2 has converged.
 Root      3 has converged.
 Root      4 has converged.
 Root      5 has converged.
 Root      6 has converged.
 Root      7 has converged.
 Root      8 has converged.
 Root      9 has converged.
 Root     10 has converged.
 Root     11 not converged, maximum delta is    0.002002011135937
 Root     12 not converged, maximum delta is    0.001704928089796
 Root     13 not converged, maximum delta is    0.003560992815164
 Root     14 not converged, maximum delta is    0.001750896598696
 Root     15 has converged.
 Root     16 not converged, maximum delta is    0.001463323073228
 Root     17 has converged.
 Root     18 has converged.
 Root     19 not converged, maximum delta is    0.001452345678373
 Root     20 has converged.
 Excitation Energies [eV] at current iteration:
 Root      1 :     4.556013960031513   Change is   -0.000029974693327
 Root      2 :     4.783633667437517   Change is   -0.000036356762454
 Root      3 :     4.963871184005177   Change is   -0.000004138459705
 Root      4 :     5.564744175707317   Change is   -0.000117533744358
 Root      5 :     5.731220610394896   Change is   -0.000084473082954
 Root      6 :     5.918021088532443   Change is   -0.000232972031159
 Root      7 :     6.014942389896452   Change is   -0.000068173890974
 Root      8 :     6.254552383829723   Change is   -0.000047314037305
 Root      9 :     6.421817527475665   Change is   -0.000199916314342
 Root     10 :     6.495906978762877   Change is   -0.000004277474727
 Root     11 :     6.511340125866473   Change is   -0.000030970695754
 Root     12 :     6.514237183533223   Change is   -0.000488126413993
 Root     13 :     6.582986033129901   Change is   -0.000192486173233
 Root     14 :     6.634701677342883   Change is   -0.000108300206180
 Root     15 :     6.719754188492082   Change is   -0.000200919920515
 Root     16 :     6.843222448333512   Change is   -0.000013439040364
 Root     17 :     6.947661827653732   Change is   -0.000001784901688
 Root     18 :     6.969369895632609   Change is   -0.000017732673387
 Root     19 :     6.985430984036532   Change is   -0.000046045251946
 Root     20 :     7.001382371180473   Change is   -0.000035560459574
 Iteration     6 Dimension   248 NMult   236 NNew     12
 CISAX will form     3 AO SS matrices at one time.
 NMat=     3 NSing=     3 JSym2X= 0.
 NMat=     3 NSing=     3 JSym2X= 0.
 NMat=     3 NSing=     3 JSym2X= 0.
 NMat=     3 NSing=     3 JSym2X= 0.
 Root      1 has converged.
 Root      2 has converged.
 Root      3 has converged.
 Root      4 has converged.
 Root      5 has converged.
 Root      6 has converged.
 Root      7 has converged.
 Root      8 has converged.
 Root      9 has converged.
 Root     10 has converged.
 Root     11 has converged.
 Root     12 has converged.
 Root     13 has converged.
 Root     14 has converged.
 Root     15 has converged.
 Root     16 has converged.
 Root     17 has converged.
 Root     18 has converged.
 Root     19 has converged.
 Root     20 has converged.
 Excitation Energies [eV] at current iteration:
 Root      1 :     4.556013953390859   Change is   -0.000000006640655
 Root      2 :     4.783633647379133   Change is   -0.000000020058383
 Root      3 :     4.963871132023588   Change is   -0.000000051981589
 Root      4 :     5.564744090766164   Change is   -0.000000084941153
 Root      5 :     5.731218680760708   Change is   -0.000001929634188
 Root      6 :     5.918019212570933   Change is   -0.000001875961511
 Root      7 :     6.014936731407047   Change is   -0.000005658489405
 Root      8 :     6.254551866386256   Change is   -0.000000517443467
 Root      9 :     6.421810564112559   Change is   -0.000006963363105
 Root     10 :     6.495906975953720   Change is   -0.000000002809156
 Root     11 :     6.511335165792058   Change is   -0.000004960074415
 Root     12 :     6.514169956573798   Change is   -0.000067226959425
 Root     13 :     6.582952002863073   Change is   -0.000034030266829
 Root     14 :     6.634687072157650   Change is   -0.000014605185233
 Root     15 :     6.719752377311830   Change is   -0.000001811180252
 Root     16 :     6.843219273508486   Change is   -0.000003174825027
 Root     17 :     6.947661797416033   Change is   -0.000000030237699
 Root     18 :     6.969369366448161   Change is   -0.000000529184448
 Root     19 :     6.985420768275588   Change is   -0.000010215760945
 Root     20 :     7.001381744961713   Change is   -0.000000626218759
 Convergence achieved on expansion vectors.
 ***********************************************************************
 Excited states from <AA,BB:AA,BB> singles matrix:
 ***********************************************************************
 
 1PDM for each excited state written to RWF  633
 Ground to excited state transition densities written to RWF  633
 Ground to excited state transition electric dipole moments (Au):
       state          X           Y           Z        Dip. S.      Osc.
         1         0.0000     -0.1073      1.4377      2.0786      0.2320
         2        -0.0000      0.0663     -0.8849      0.7875      0.0923
         3         0.0000      0.2671      0.0183      0.0717      0.0087
         4         0.0000      0.0412     -0.5486      0.3026      0.0413
         5        -0.0000      0.5506      0.0423      0.3049      0.0428
         6        -0.0000     -0.9862     -0.0684      0.9772      0.1417
         7        -0.0000     -0.0792      1.0817      1.1764      0.1734
         8        -0.0000     -0.3911     -0.0283      0.1538      0.0236
         9         0.0000      0.4254      0.0375      0.1824      0.0287
        10        -0.0002     -0.0000      0.0000      0.0000      0.0000
        11        -0.0000      0.0632     -0.0390      0.0055      0.0009
        12         0.0000     -0.1367      1.8328      3.3779      0.5391
        13         0.0631      0.0000     -0.0000      0.0040      0.0006
        14         0.0004      0.0000      0.0000      0.0000      0.0000
[...]
 Alpha virt. eigenvalues --    2.75234   2.75371   2.75380   2.75687   2.76292
 Alpha virt. eigenvalues --    2.76433   2.76503   2.76702   2.76788   2.76936
 Alpha virt. eigenvalues --    2.77050   2.77215   2.77227   2.77502   2.77555
 Alpha virt. eigenvalues --    2.77784   2.77969   2.78093   2.78161   2.78200
 Alpha virt. eigenvalues --    2.78373   2.78635   2.78763   2.79000   2.79196
 Alpha virt. eigenvalues --    2.79453   2.79541   2.79863   2.79880   2.80112
 Alpha virt. eigenvalues --    2.80149   2.80211   2.80467   2.80584   2.80789
 Alpha virt. eigenvalues --    2.80823   2.81075   2.81247   2.81323   2.81437
 Alpha virt. eigenvalues --    2.81539   2.81821   2.82070   2.82165   2.82421
 Alpha virt. eigenvalues --    2.82766   2.82839   2.83903   2.84298   2.84869
 Alpha virt. eigenvalues --    2.84891   2.85530   2.85676   2.86348   2.87159
 Alpha virt. eigenvalues --    2.87213   2.87741   2.88022   2.88846   2.89306
 Alpha virt. eigenvalues --    2.90486   2.91377   2.91507   2.91701   2.92899
 Alpha virt. eigenvalues --    2.93306   2.94210   2.94366   2.94960   2.95704
 Alpha virt. eigenvalues --    2.95903   2.96207   2.97136   2.97290   2.97826
 Alpha virt. eigenvalues --    2.98286   2.98898   2.99360   2.99797   2.99928
 Alpha virt. eigenvalues --    3.00744   3.01139   3.01273   3.02748   3.02775
 Alpha virt. eigenvalues --    3.02924   3.03385   3.04032   3.04259   3.05397
 Alpha virt. eigenvalues --    3.05785   3.05845   3.06031   3.06591   3.07243
 Alpha virt. eigenvalues --    3.07409   3.07489   3.07681   3.08061   3.08867
 Alpha virt. eigenvalues --    3.09694   3.10484   3.10978   3.11274   3.11818
 Alpha virt. eigenvalues --    3.11845   3.12899   3.13651   3.13764   3.14241
 Alpha virt. eigenvalues --    3.14734   3.15707   3.15795   3.15848   3.16049
 Alpha virt. eigenvalues --    3.16551   3.17767   3.18063   3.18094   3.18470
 Alpha virt. eigenvalues --    3.19000   3.19169   3.19956   3.20237   3.20433
 Alpha virt. eigenvalues --    3.20571   3.20656   3.20735   3.20868   3.21136
 Alpha virt. eigenvalues --    3.21202   3.21255   3.21572   3.22198   3.22247
 Alpha virt. eigenvalues --    3.22466   3.22469   3.22918   3.22981   3.23020
 Alpha virt. eigenvalues --    3.23154   3.23444   3.24249   3.24306   3.24337
 Alpha virt. eigenvalues --    3.24649   3.24781   3.25003   3.25229   3.25284
 Alpha virt. eigenvalues --    3.25416   3.25436   3.25891   3.26100   3.26153
 Alpha virt. eigenvalues --    3.26196   3.26292   3.26498   3.26510   3.26799
 Alpha virt. eigenvalues --    3.26840   3.26918   3.27267   3.27455   3.27655
 Alpha virt. eigenvalues --    3.28299   3.28414   3.28875   3.28926   3.29475
 Alpha virt. eigenvalues --    3.29885   3.29942   3.30457   3.30951   3.31096
 Alpha virt. eigenvalues --    3.31327   3.31444   3.31961   3.32680   3.33090
 Alpha virt. eigenvalues --    3.33268   3.33514   3.33769   3.34359   3.34439
 Alpha virt. eigenvalues --    3.34864   3.35189   3.35531   3.35610   3.36004
 Alpha virt. eigenvalues --    3.36427   3.37078   3.37334   3.37845   3.38177
 Alpha virt. eigenvalues --    3.38558   3.38605   3.38845   3.38985   3.39244
 Alpha virt. eigenvalues --    3.39274   3.39853   3.40091   3.40229   3.40460
 Alpha virt. eigenvalues --    3.40543   3.41096   3.41221   3.41768   3.42470
 Alpha virt. eigenvalues --    3.42485   3.42684   3.42696   3.43105   3.43395
 Alpha virt. eigenvalues --    3.43734   3.44356   3.44452   3.44767   3.44881
 Alpha virt. eigenvalues --    3.45018   3.45158   3.45368   3.45784   3.45956
 Alpha virt. eigenvalues --    3.46244   3.46679   3.46850   3.47579   3.47652
 Alpha virt. eigenvalues --    3.47862   3.48395   3.48878   3.48946   3.48950
 Alpha virt. eigenvalues --    3.49010   3.49030   3.49200   3.49728   3.49750
 Alpha virt. eigenvalues --    3.50253   3.50283   3.50627   3.50905   3.51389
 Alpha virt. eigenvalues --    3.51448   3.51476   3.52344   3.52451   3.52793
 Alpha virt. eigenvalues --    3.52805   3.52886   3.53161   3.53251   3.53722
 Alpha virt. eigenvalues --    3.53950   3.54115   3.54347   3.54925   3.55301
 Alpha virt. eigenvalues --    3.55671   3.56534   3.56597   3.56829   3.56951
 Alpha virt. eigenvalues --    3.57414   3.57657   3.57804   3.58071   3.58332
 Alpha virt. eigenvalues --    3.58442   3.58605   3.59253   3.59281   3.59628
 Alpha virt. eigenvalues --    3.59664   3.59667   3.60274   3.60461   3.60731
 Alpha virt. eigenvalues --    3.61348   3.61419   3.61462   3.61644   3.61877
 Alpha virt. eigenvalues --    3.61940   3.62534   3.63063   3.63231   3.63418
 Alpha virt. eigenvalues --    3.63791   3.63859   3.63976   3.64057   3.64717
 Alpha virt. eigenvalues --    3.64943   3.65013   3.65055   3.65141   3.65627
 Alpha virt. eigenvalues --    3.65698   3.65842   3.66273   3.66601   3.66798
 Alpha virt. eigenvalues --    3.66959   3.66996   3.67020   3.67641   3.67838
 Alpha virt. eigenvalues --    3.67844   3.68066   3.68408   3.68828   3.68986
 Alpha virt. eigenvalues --    3.69324   3.69782   3.70372   3.70828   3.70890
 Alpha virt. eigenvalues --    3.71216   3.71883   3.73071   3.73536   3.74779
 Alpha virt. eigenvalues --    3.75909   3.76166   3.77499   3.79189   3.79758
 Alpha virt. eigenvalues --    3.80363   3.80926   3.81152   3.81896   3.82670
 Alpha virt. eigenvalues --    3.82953   3.83054   3.83307   3.83943   3.85950
 Alpha virt. eigenvalues --    3.85995   3.86822   3.87214   3.88026   3.88433
 Alpha virt. eigenvalues --    3.88499   3.88585   3.88735   3.90434   3.90538
 Alpha virt. eigenvalues --    3.90663   3.91116   3.91167   3.91175   3.92190
 Alpha virt. eigenvalues --    3.92359   3.92412   3.92565   3.92678   3.92688
 Alpha virt. eigenvalues --    3.92689   3.92781   3.92796   3.93017   3.93199
 Alpha virt. eigenvalues --    3.93299   3.93714   3.93739   3.93937   3.94429
 Alpha virt. eigenvalues --    3.94503   3.94731   3.95075   3.95836   3.96027
 Alpha virt. eigenvalues --    3.96135   3.96165   3.96268   3.96777   3.97210
 Alpha virt. eigenvalues --    3.97904   3.99448   3.99558   3.99753   4.01228
 Alpha virt. eigenvalues --    4.01457   4.01807   4.02652   4.03273   4.04206
 Alpha virt. eigenvalues --    4.04208   4.04271   4.05904   4.06126   4.06192
 Alpha virt. eigenvalues --    4.06363   4.07132   4.07792   4.08274   4.09468
 Alpha virt. eigenvalues --    4.09517   4.10679   4.11171   4.11499   4.11725
 Alpha virt. eigenvalues --    4.12152   4.13237   4.13591   4.14064   4.14201
 Alpha virt. eigenvalues --    4.14890   4.15467   4.15760   4.16018   4.16517
 Alpha virt. eigenvalues --    4.17103   4.17654   4.17956   4.18106   4.18383
 Alpha virt. eigenvalues --    4.19135   4.19543   4.20139   4.20503   4.20659
 Alpha virt. eigenvalues --    4.22353   4.22654   4.23497   4.24343   4.24741
 Alpha virt. eigenvalues --    4.25492   4.25900   4.27170   4.27831   4.28855
 Alpha virt. eigenvalues --    4.29124   4.31088   4.31095   4.31254   4.32848
 Alpha virt. eigenvalues --    4.33277   4.33352   4.33499   4.34019   4.34404
 Alpha virt. eigenvalues --    4.35072   4.35927   4.36526   4.37907   4.38017
 Alpha virt. eigenvalues --    4.38495   4.38893   4.40967   4.41338   4.41858
 Alpha virt. eigenvalues --    4.43060   4.43426   4.43607   4.44049   4.46738
 Alpha virt. eigenvalues --    4.47298   4.47860   4.48880   4.49277   4.50919
 Alpha virt. eigenvalues --    4.51301   4.51457   4.52033   4.53431   4.53436
 Alpha virt. eigenvalues --    4.55178   4.55346   4.56080   4.56334   4.56991
 Alpha virt. eigenvalues --    4.57707   4.58008   4.58351   4.58845   4.58942
 Alpha virt. eigenvalues --    4.59283   4.59597   4.59817   4.59958   4.60882
 Alpha virt. eigenvalues --    4.61479   4.61796   4.62647   4.62823   4.63161
 Alpha virt. eigenvalues --    4.63402   4.63430   4.63941   4.64528   4.65194
 Alpha virt. eigenvalues --    4.65282   4.65865   4.65913   4.66141   4.66234
 Alpha virt. eigenvalues --    4.66630   4.68095   4.68519   4.69106   4.69860
 Alpha virt. eigenvalues --    4.70160   4.70267   4.70498   4.71543   4.71620
 Alpha virt. eigenvalues --    4.72184   4.72220   4.72531   4.72744   4.72781
 Alpha virt. eigenvalues --    4.73452   4.73575   4.73893   4.74080   4.74475
 Alpha virt. eigenvalues --    4.74720   4.74864   4.75166   4.75325   4.76018
 Alpha virt. eigenvalues --    4.76531   4.76601   4.76908   4.77931   4.79185
 Alpha virt. eigenvalues --    4.79669   4.79872   4.80121   4.81774   4.81926
 Alpha virt. eigenvalues --    4.83166   4.85100   4.85331   4.86124   4.86517
 Alpha virt. eigenvalues --    4.87056   4.88532   4.90111   4.91106   4.92061
 Alpha virt. eigenvalues --    4.95871   4.96564   4.98056   4.98352   4.98692
 Alpha virt. eigenvalues --    5.01550   5.02262   5.04243   5.04702   5.07200
 Alpha virt. eigenvalues --    5.09872   5.10670   5.13348   5.15543   5.16591
 Alpha virt. eigenvalues --    5.18410   5.20629   5.22054   5.22809   5.27806
 Alpha virt. eigenvalues --    5.28748   5.31699   5.32886   5.32955   5.34678
 Alpha virt. eigenvalues --    5.36537   5.38832   5.39968   5.40498   5.43303
 Alpha virt. eigenvalues --    5.43946   5.48317   5.48416   5.48440   5.54566
 Alpha virt. eigenvalues --    5.63310   5.65692   5.71020   5.81010   5.81906
 Alpha virt. eigenvalues --    6.13828  22.26614  22.36026  22.36081  22.38781
 Alpha virt. eigenvalues --   22.38987  22.42704  22.42981  22.47572  22.47932
 Alpha virt. eigenvalues --   22.52965  22.53300  22.57108  22.57362  22.58858
 Alpha virt. eigenvalues --   22.59011  22.59121  22.60531  22.60703  22.61225
 Alpha virt. eigenvalues --   22.61245  22.62233  22.62342  22.62545  22.62600
 Alpha virt. eigenvalues --   22.62660  22.62914  22.63156  22.63318  22.65958
 Alpha virt. eigenvalues --   22.66887  22.72906  22.73589  22.75718  22.78906
 Alpha virt. eigenvalues --   22.82103  22.83717  22.92835  23.09507  23.11693
 Alpha virt. eigenvalues --   23.24384  23.25856  23.75615  23.93271
          Condensed to atoms (all electrons):
 Mulliken charges:
               1
     1  C   -0.091013
     2  C   -0.101254
     3  C   -0.235072
     4  C   -0.369284
     5  C    0.226136
     6  C   -0.244294
     7  H    0.112444
     8  H    0.112776
     9  H    0.107274
    10  H    0.107504
    11  C    0.879567
    12  C   -0.373616
    13  C   -0.234137
    14  C   -0.101638
    15  C   -0.090816
    16  C   -0.244558
    17  C    0.227967
    18  H    0.107273
    19  H    0.112769
    20  H    0.112448
    21  H    0.107505
    22  C   -0.251979
    23  H    0.097782
    24  H    0.097673
    25  C   -0.251979
    26  H    0.097674
    27  H    0.097782
    28  C   -0.243260
    29  H    0.118086
    30  H    0.117886
    31  C   -0.178320
    32  H    0.091578
    33  H    0.091441
    34  C   -0.243260
    35  H    0.118086
    36  H    0.117886
    37  C   -0.178320
    38  H    0.091578
    39  H    0.091440
    40  C   -0.195812
    41  H    0.095085
    42  H    0.095070
    43  C   -0.180636
    44  H    0.090857
    45  H    0.090729
    46  C   -0.195812
    47  H    0.095085
    48  H    0.095070
    49  C   -0.180636
    50  H    0.090857
    51  H    0.090729
    52  C   -0.184408
    53  H    0.091992
    54  H    0.092079
    55  C   -0.184408
    56  H    0.091992
    57  H    0.092079
    58  C   -0.182111
    59  H    0.091265
    60  H    0.091166
    61  C   -0.182110
    62  H    0.091264
    63  H    0.091166
    64  C   -0.183659
    65  H    0.091768
    66  H    0.091695
    67  C   -0.183412
    68  H    0.091464
    69  H    0.091529
    70  C   -0.183382
    71  H    0.091788
    72  H    0.091741
    73  C   -0.186596
    74  H    0.091899
    75  H    0.091935
    76  C   -0.180729
    77  H    0.091405
    78  H    0.091380
    79  C   -0.205872
    80  H    0.091302
    81  H    0.091317
    82  C   -0.158161
    83  H    0.093505
    84  H    0.093495
    85  C   -0.354990
    86  H    0.124574
    87  H    0.112926
    88  H    0.112927
    89  C   -0.183659
    90  H    0.091695
    91  H    0.091768
    92  C   -0.183412
    93  H    0.091464
    94  H    0.091529
    95  C   -0.183382
    96  H    0.091741
    97  H    0.091788
    98  C   -0.186596
    99  H    0.091899
   100  H    0.091935
   101  C   -0.180729
   102  H    0.091380
   103  H    0.091405
   104  C   -0.205872
   105  H    0.091302
   106  H    0.091317
   107  C   -0.158161
   108  H    0.093495
   109  H    0.093504
   110  C   -0.354990
   111  H    0.112926
   112  H    0.124574
   113  H    0.112927
 Sum of Mulliken charges =  -0.00000
 Mulliken charges with hydrogens summed into heavy atoms:
               1
     1  C    0.021431
     2  C    0.011522
     3  C   -0.127797
     4  C   -0.369284
     5  C    0.226136
     6  C   -0.136791
    11  C    0.879567
    12  C   -0.373616
    13  C   -0.126864
    14  C    0.011131
    15  C    0.021632
    16  C   -0.137052
    17  C    0.227967
    22  C   -0.056524
    25  C   -0.056524
    28  C   -0.007289
    31  C    0.004699
    34  C   -0.007288
    37  C    0.004699
    40  C   -0.005657
    43  C    0.000950
    46  C   -0.005657
    49  C    0.000949
    52  C   -0.000338
    55  C   -0.000337
    58  C    0.000320
    61  C    0.000320
    64  C   -0.000196
    67  C   -0.000419
    70  C    0.000146
    73  C   -0.002762
    76  C    0.002055
    79  C   -0.023253
    82  C    0.028839
    85  C   -0.004563
    89  C   -0.000197
    92  C   -0.000419
    95  C    0.000147
    98  C   -0.002762
   101  C    0.002055
   104  C   -0.023253
   107  C    0.028839
   110  C   -0.004563
 Electronic spatial extent (au):  <R**2>=         122487.1093
 Charge=             -0.0000 electrons
 Dipole moment (field-independent basis, Debye):
    X=              0.0000    Y=             -0.1820    Z=             -0.0176  Tot=              0.1829
 Quadrupole moment (field-independent basis, Debye-Ang):
   XX=           -288.1296   YY=           -273.2235   ZZ=           -264.0066
   XY=             -0.0000   XZ=              0.0000   YZ=             -0.5954
 Traceless Quadrupole moment (field-independent basis, Debye-Ang):
   XX=            -13.0097   YY=              1.8964   ZZ=             11.1133
   XY=             -0.0000   XZ=              0.0000   YZ=             -0.5954
 Octapole moment (field-independent basis, Debye-Ang**2):
  XXX=             -0.0001  YYY=             56.9730  ZZZ=              0.6848  XYY=             -0.0000
  XXY=             42.7328  XXZ=             -1.1430  XZZ=              0.0000  YZZ=              7.4536
  YYZ=              2.4814  XYZ=             -0.0001
 Hexadecapole moment (field-independent basis, Debye-Ang**3):
 XXXX=        -169103.8660 YYYY=          -5060.4017 ZZZZ=          -2635.0851 XXXY=             -0.0039
 XXXZ=              0.0047 YYYX=             -0.0001 YYYZ=             -7.1168 ZZZX=             -0.0000
 ZZZY=              1.2783 XXYY=         -28930.2396 XXZZ=         -27218.2918 YYZZ=          -1259.7830
 XXYZ=            -71.7035 YYXZ=              0.0003 ZZXY=             -0.0001
 N-N= 4.261799248759D+03 E-N=-1.241443763243D+04  KE= 1.670455805114D+03
 Leave Link  601 at Thu Oct 26 21:55:18 2023, MaxMem=   671088640 cpu:              31.9 elap:               1.5
 (Enter /usr/g16/l9999.exe)
 1\1\GINC-LW07\SP\RPBE1PBE TD-FC\def2TZVP\C43H70\LVZIYI\26-Oct-2023\0\\
 #p TD(nstates=20,root=1) pbe1pbe/def2tzvp\\gebf\\0,1\C,0,0.,3.817482,-
 2.80442\C,0,0.,2.534466,-3.340464\C,0,0.,1.420258,-2.507726\C,0,0.,1.6
 03747,-1.137589\C,0,0.,2.895413,-0.599383\C,0,0.,4.007887,-1.429923\H,
 0,0.,4.675479,-3.467192\H,0,0.,2.402742,-4.416621\H,0,0.,0.422949,-2.9
 36306\H,0,0.,5.010973,-1.017096\C,0,0.,0.557487,-0.041118\C,0,0.,1.429
 696,1.198316\C,0,0.,1.045433,2.526208\C,0,0.,2.024072,3.514742\C,0,0.,
 3.372322,3.174646\C,0,0.,3.764109,1.84348\C,0,0.,2.786873,0.857395\H,0
 ,0.,-0.004313,2.802504\H,0,0.,1.734429,4.559524\H,0,0.,4.12274,3.95713
 9\H,0,0.,4.817247,1.583642\C,0,-1.249458,-0.34285,-0.10783\H,0,-1.1906
 42,-0.933612,-1.030087\H,0,-1.188829,-1.064453,0.71598\C,0,1.249458,-0
 .34285,-0.10783\H,0,1.188829,-1.064453,0.715979\H,0,1.190642,-0.933612
 ,-1.030088\C,0,-2.589576,0.371976,-0.05222\H,0,-2.65289,0.962589,0.868
 232\H,0,-2.660085,1.086622,-0.87949\C,0,-3.767201,-0.588634,-0.11461\H
 ,0,-3.707047,-1.181255,-1.036458\H,0,-3.694565,-1.308539,0.710692\C,0,
 2.589576,0.371976,-0.05222\H,0,2.652891,0.962588,0.868233\H,0,2.660085
 ,1.086623,-0.87949\C,0,3.767201,-0.588633,-0.114611\H,0,3.707048,-1.18
 1254,-1.03646\H,0,3.694565,-1.30854,0.71069\C,0,-5.117484,0.107624,-0.
 053423\H,0,-5.175652,0.702534,0.86662\H,0,-5.192553,0.825176,-0.879999
 \C,0,-6.297869,-0.849,-0.108482\H,0,-6.241437,-1.442464,-1.029844\H,0,
 -6.220231,-1.568014,0.716938\C,0,5.117484,0.107624,-0.053423\H,0,5.175
 652,0.702532,0.866621\H,0,5.192553,0.825178,-0.879997\C,0,6.297869,-0.
 848999,-0.108483\H,0,6.241438,-1.442462,-1.029847\H,0,6.220231,-1.5680
 16,0.716934\C,0,-7.6479,-0.152853,-0.041442\H,0,-7.702572,0.442497,0.8
 78722\H,0,-7.727123,0.564558,-0.867966\C,0,7.6479,-0.152853,-0.041441\
 H,0,7.702571,0.442494,0.878724\H,0,7.727123,0.564561,-0.867964\C,0,8.8
 28976,-1.108988,-0.091139\H,0,8.775935,-1.703213,-1.012175\H,0,8.74824
 9,-1.827377,0.734482\C,0,-8.828976,-1.108989,-0.091136\H,0,-8.775935,-
 1.703216,-1.012171\H,0,-8.748249,-1.827374,0.734487\C,0,10.178656,-0.4
 12601,-0.019805\H,0,10.260486,0.304626,-0.846274\H,0,10.230411,0.18297
 4,0.90041\C,0,11.360042,-1.368553,-0.065684\H,0,11.277287,-2.086395,0.
 760192\H,0,11.309411,-1.963401,-0.986441\C,0,12.709444,-0.671924,0.008
 463\H,0,12.7929,0.045164,-0.817974\H,0,12.759254,-0.076203,0.928695\C,
 0,13.891011,-1.627766,-0.034974\H,0,13.807099,-2.34515,0.791164\H,0,13
 .841837,-2.223123,-0.955467\C,0,15.240246,-0.930953,0.040682\H,0,15.32
 4528,-0.213984,-0.785803\H,0,15.28898,-0.335106,0.960914\C,0,16.421982
 ,-1.886348,-0.001408\H,0,16.338652,-2.603718,0.825004\H,0,16.374539,-2
 .482479,-0.921676\C,0,17.771677,-1.189976,0.074698\H,0,17.854239,-0.47
 4017,-0.751431\H,0,17.818125,-0.594867,0.994262\C,0,18.945036,-2.15425
 9,0.032279\H,0,19.901026,-1.628358,0.088471\H,0,18.90528,-2.86045,0.86
 6573\H,0,18.941733,-2.738791,-0.892189\C,0,-10.178656,-0.412602,-0.019
 806\H,0,-10.230411,0.182977,0.900407\H,0,-10.260486,0.304623,-0.846277
 \C,0,-11.360042,-1.368553,-0.065682\H,0,-11.277288,-2.086392,0.760197\
 H,0,-11.30941,-1.963406,-0.986436\C,0,-12.709444,-0.671924,0.008461\H,
 0,-12.759254,-0.076199,0.928691\H,0,-12.792899,0.04516,-0.817978\C,0,-
 13.891011,-1.627766,-0.034972\H,0,-13.807099,-2.345147,0.791169\H,0,-1
 3.841836,-2.223127,-0.955462\C,0,-15.240246,-0.930953,0.04068\H,0,-15.
 288981,-0.335101,0.960908\H,0,-15.324527,-0.213988,-0.785808\C,0,-16.4
 21982,-1.886348,-0.001407\H,0,-16.338653,-2.603714,0.825008\H,0,-16.37
 4539,-2.482483,-0.921672\C,0,-17.771677,-1.189976,0.074695\H,0,-17.818
 125,-0.594863,0.994256\H,0,-17.854238,-0.47402,-0.751437\C,0,-18.94503
 6,-2.154258,0.03228\H,0,-18.90528,-2.860446,0.866577\H,0,-19.901026,-1
 .628357,0.088468\H,0,-18.941733,-2.738795,-0.892186\\Version=ES64L-G16
 RevA.03\State=1-A\HF=-1679.3395496\RMSD=2.481e-09\PG=C01 [X(C43H70)]\\
 @


 LET US LEARN TO DREAM, GENTLEMEN, THEN PERHAPS WE SHALL
 DISCOVER THE TRUTH;  BUT LET US BEWARE OF PUBLISHING
 OUR DREAMS ABROAD BEFORE THEY HAVE BEEN SCRUTINIZED
 BY OUR VIGILANT INTELLECT ... LET US ALWAYS ALLOW
 THE FRUIT TO HANG UNTIL IT IS RIPE.  UNRIPE FRUIT
 BRINGS EVEN THE GROWER BUT LITTLE PROFIT; IT DAMAGES
 THE HEALTH OF THOSE WHO CONSUME IT; IT ENDANGERS
 PARTICULARLY THE YOUTH WHO CANNOT YET DISTINGUISH
 BETWEEN RIPE AND UNRIPE FRUIT.

                                  -- KEKULE, 1890
 Job cpu time:       6 days  6 hours 12 minutes 43.9 seconds.
 Elapsed time:       0 days  6 hours 16 minutes 20.4 seconds.
 File lengths (MBytes):  RWF=  17959 Int=      0 D2E=      0 Chk=   1854 Scr=      1
 Normal termination of Gaussian 16 at Thu Oct 26 21:55:21 2023.
