
                                 *****************
                                 * O   R   C   A *
                                 *****************

                                            #,                                       
                                            ###                                      
                                            ####                                     
                                            #####                                    
                                            ######                                   
                                           ########,                                 
                                     ,,################,,,,,                         
                               ,,#################################,,                 
                          ,,##########################################,,             
                       ,#########################################, ''#####,          
                    ,#############################################,,   '####,        
                  ,##################################################,,,,####,       
                ,###########''''           ''''###############################       
              ,#####''   ,,,,##########,,,,          '''####'''          '####       
            ,##' ,,,,###########################,,,                        '##       
           ' ,,###''''                  '''############,,,                           
         ,,##''                                '''############,,,,        ,,,,,,###''
      ,#''                                            '''#######################'''  
     '                                                          ''''####''''         
             ,#######,   #######,   ,#######,      ##                                
            ,#'     '#,  ##    ##  ,#'     '#,    #''#        ######   ,####,        
            ##       ##  ##   ,#'  ##            #'  '#       #        #'  '#        
            ##       ##  #######   ##           ,######,      #####,   #    #        
            '#,     ,#'  ##    ##  '#,     ,#' ,#      #,         ##   #,  ,#        
             '#######'   ##     ##  '#######'  #'      '#     #####' # '####'        



                  #######################################################
                  #                        -***-                        #
                  #          Department of theory and spectroscopy      #
                  #    Directorship and core code : Frank Neese         #
                  #        Max Planck Institute fuer Kohlenforschung    #
                  #                Kaiser Wilhelm Platz 1               #
                  #                 D-45470 Muelheim/Ruhr               #
                  #                      Germany                        #
                  #                                                     #
                  #                  All rights reserved                #
                  #                        -***-                        #
                  #######################################################


                         Program Version 5.0.2 -  RELEASE  -


 With contributions from (in alphabetic order):
   Daniel Aravena         : Magnetic Suceptibility
   Michael Atanasov       : Ab Initio Ligand Field Theory (pilot matlab implementation)
   Alexander A. Auer      : GIAO ZORA, VPT2 properties, NMR spectrum
   Ute Becker             : Parallelization
   Giovanni Bistoni       : ED, misc. LED, open-shell LED, HFLD
   Martin Brehm           : Molecular dynamics
   Dmytro Bykov           : SCF Hessian
   Vijay G. Chilkuri      : MRCI spin determinant printing, contributions to CSF-ICE
   Dipayan Datta          : RHF DLPNO-CCSD density
   Achintya Kumar Dutta   : EOM-CC, STEOM-CC
   Dmitry Ganyushin       : Spin-Orbit,Spin-Spin,Magnetic field MRCI
   Miquel Garcia          : C-PCM and meta-GGA Hessian, CC/C-PCM, Gaussian charge scheme
   Yang Guo               : DLPNO-NEVPT2, F12-NEVPT2, CIM, IAO-localization
   Andreas Hansen         : Spin unrestricted coupled pair/coupled cluster methods
   Benjamin Helmich-Paris : MC-RPA, TRAH-SCF, COSX integrals
   Lee Huntington         : MR-EOM, pCC
   Robert Izsak           : Overlap fitted RIJCOSX, COSX-SCS-MP3, EOM
   Marcus Kettner         : VPT2
   Christian Kollmar      : KDIIS, OOCD, Brueckner-CCSD(T), CCSD density, CASPT2, CASPT2-K
   Simone Kossmann        : Meta GGA functionals, TD-DFT gradient, OOMP2, MP2 Hessian
   Martin Krupicka        : Initial AUTO-CI
   Lucas Lang             : DCDCAS
   Marvin Lechner         : AUTO-CI (C++ implementation), FIC-MRCC
   Dagmar Lenk            : GEPOL surface, SMD
   Dimitrios Liakos       : Extrapolation schemes; Compound Job, initial MDCI parallelization
   Dimitrios Manganas     : Further ROCIS development; embedding schemes
   Dimitrios Pantazis     : SARC Basis sets
   Anastasios Papadopoulos: AUTO-CI, single reference methods and gradients
   Taras Petrenko         : DFT Hessian,TD-DFT gradient, ASA, ECA, R-Raman, ABS, FL, XAS/XES, NRVS
   Peter Pinski           : DLPNO-MP2, DLPNO-MP2 Gradient
   Christoph Reimann      : Effective Core Potentials
   Marius Retegan         : Local ZFS, SOC
   Christoph Riplinger    : Optimizer, TS searches, QM/MM, DLPNO-CCSD(T), (RO)-DLPNO pert. Triples
   Tobias Risthaus        : Range-separated hybrids, TD-DFT gradient, RPA, STAB
   Michael Roemelt        : Original ROCIS implementation
   Masaaki Saitow         : Open-shell DLPNO-CCSD energy and density
   Barbara Sandhoefer     : DKH picture change effects
   Avijit Sen             : IP-ROCIS
   Kantharuban Sivalingam : CASSCF convergence, NEVPT2, FIC-MRCI
   Bernardo de Souza      : ESD, SOC TD-DFT
   Georgi Stoychev        : AutoAux, RI-MP2 NMR, DLPNO-MP2 response
   Willem Van den Heuvel  : Paramagnetic NMR
   Boris Wezisla          : Elementary symmetry handling
   Frank Wennmohs         : Technical directorship


 We gratefully acknowledge several colleagues who have allowed us to
 interface, adapt or use parts of their codes:
   Stefan Grimme, W. Hujo, H. Kruse, P. Pracht,  : VdW corrections, initial TS optimization,
                  C. Bannwarth, S. Ehlert          DFT functionals, gCP, sTDA/sTD-DF
   Ed Valeev, F. Pavosevic, A. Kumar             : LibInt (2-el integral package), F12 methods
   Garnet Chan, S. Sharma, J. Yang, R. Olivares  : DMRG
   Ulf Ekstrom                                   : XCFun DFT Library
   Mihaly Kallay                                 : mrcc  (arbitrary order and MRCC methods)
   Jiri Pittner, Ondrej Demel                    : Mk-CCSD
   Frank Weinhold                                : gennbo (NPA and NBO analysis)
   Christopher J. Cramer and Donald G. Truhlar   : smd solvation model
   Lars Goerigk                                  : TD-DFT with DH, B97 family of functionals
   V. Asgeirsson, H. Jonsson                     : NEB implementation
   FAccTs GmbH                                   : IRC, NEB, NEB-TS, DLPNO-Multilevel, CI-OPT
                                                   MM, QMMM, 2- and 3-layer-ONIOM, Crystal-QMMM,
                                                   LR-CPCM, SF, NACMEs, symmetry and pop. for TD-DFT,
                                                   nearIR, NL-DFT gradient (VV10), updates on ESD,
                                                   ML-optimized integration grids
   S Lehtola, MJT Oliveira, MAL Marques          : LibXC Library
   Liviu Ungur et al                             : ANISO software


 Your calculation uses the libint2 library for the computation of 2-el integrals
 For citations please refer to: http://libint.valeyev.net

 Your ORCA version has been built with support for libXC version: 5.1.0
 For citations please refer to: https://tddft.org/programs/libxc/

 This ORCA versions uses:
   CBLAS   interface :  Fast vector & matrix operations
   LAPACKE interface :  Fast linear algebra routines
   SCALAPACK package :  Parallel linear algebra routines
   Shared memory     :  Shared parallel matrices
   BLAS/LAPACK       :  OpenBLAS 0.3.15  USE64BITINT DYNAMIC_ARCH NO_AFFINITY SkylakeX SINGLE_THREADED
        Core in use  :  SkylakeX
   Copyright (c) 2011-2014, The OpenBLAS Project




***************************************
The coordinates will be read from file: methanol.xyz
***************************************


================================================================================

----- Orbital basis set information -----
Your calculation utilizes the basis: def2-SVP
   F. Weigend and R. Ahlrichs, Phys. Chem. Chem. Phys. 7, 3297 (2005).

================================================================================
                                        WARNINGS
                       Please study these warnings very carefully!
================================================================================

WARNING: Old DensityContainer found on disk!
         Will remove this file - 
         If you want to keep old densities, please start your calculation with a different basename. 

INFO   : Checking CIS options ...

WARNING: CIS/ROCIS methods need fully converged wavefunctions
  ===> : Setting SCFConvForced true
         You can overwrite this default with %scf ConvForced false 


INFO   : the flag for use of the SHARK integral package has been found!

================================================================================
                                       INPUT FILE
================================================================================
NAME = methanol.inp
|  1> ! RKS pbe0 def2-SVP nori TightSCF
|  2> 
|  3> 
|  4> %MaxCore 5000
|  5> 
|  6> 
|  7> %tddft
|  8>  Mode sTDA
|  9>  Ethresh 10.0
| 10>  maxcore 5000
| 11> end
| 12> 
| 13> * xyzfile 0 1 methanol.xyz
| 14> 
| 15> 
| 16>                          ****END OF INPUT****
================================================================================

                       ****************************
                       * Single Point Calculation *
                       ****************************

---------------------------------
CARTESIAN COORDINATES (ANGSTROEM)
---------------------------------
  C     -4.891260    3.297700    0.000290
  H     -5.282130    3.054940   -1.011610
  O     -3.493070    3.284290   -0.003280
  H     -5.282130    2.583740    0.757360
  H     -5.239980    4.315400    0.271380
  H     -3.229590    2.359810   -0.249530

----------------------------
CARTESIAN COORDINATES (A.U.)
----------------------------
  NO LB      ZA    FRAG     MASS         X           Y           Z
   0 C     6.0000    0    12.011   -9.243142    6.231750    0.000548
   1 H     1.0000    0     1.008   -9.981779    5.773000   -1.911666
   2 O     8.0000    0    15.999   -6.600946    6.206409   -0.006198
   3 H     1.0000    0     1.008   -9.981779    4.882561    1.431203
   4 H     1.0000    0     1.008   -9.902127    8.154924    0.512834
   5 H     1.0000    0     1.008   -6.103041    4.459395   -0.471543

--------------------------------
INTERNAL COORDINATES (ANGSTROEM)
--------------------------------
 C      0   0   0     0.000000000000     0.00000000     0.00000000
 H      1   0   0     1.111599471258     0.00000000     0.00000000
 O      1   2   0     1.398258863408   110.31569186     0.00000000
 H      1   2   3     1.111608394805   110.85884859   237.50319945
 H      1   2   3     1.109418188286   108.19453525   119.01633048
 H      3   1   2     0.992332627348   105.96624771   298.59232178

---------------------------
INTERNAL COORDINATES (A.U.)
---------------------------
 C      0   0   0     0.000000000000     0.00000000     0.00000000
 H      1   0   0     2.100618571288     0.00000000     0.00000000
 O      1   2   0     2.642326316170   110.31569186     0.00000000
 H      1   2   3     2.100635434348   110.85884859   237.50319945
 H      1   2   3     2.096496543852   108.19453525   119.01633048
 H      3   1   2     1.875236899443   105.96624771   298.59232178

---------------------
BASIS SET INFORMATION
---------------------
There are 3 groups of distinct atoms

 Group   1 Type C   : 7s4p1d contracted to 3s2p1d pattern {511/31/1}
 Group   2 Type H   : 4s1p contracted to 2s1p pattern {31/1}
 Group   3 Type O   : 7s4p1d contracted to 3s2p1d pattern {511/31/1}

Atom   0C    basis set group =>   1
Atom   1H    basis set group =>   2
Atom   2O    basis set group =>   3
Atom   3H    basis set group =>   2
Atom   4H    basis set group =>   2
Atom   5H    basis set group =>   2

Checking for AutoStart:
The File: methanol.gbw exists
Trying to determine its content:
     ... Fine, the file contains calculation information
     ... Fine, the calculation information was read
     ... Fine, the file contains a basis set
     ... Fine, the basis set was read
     ... Fine, the file contains a geometry
     ... Fine, the geometry was read
     ... Fine, the file contains a set of orbitals
     ... Fine, the orbitals can be read
     => possible old guess file was deleted
     => GBW file was renamed to GES file
     => GES file is set as startup file
     => Guess is set to MORead
     ... now leaving AutoStart

------------------------------------------------------------------------------
                           ORCA GTO INTEGRAL CALCULATION
------------------------------------------------------------------------------
------------------------------------------------------------------------------
                   ___                                                        
                  /   \      - P O W E R E D   B Y -                         
                 /     \                                                     
                 |  |  |   _    _      __       _____    __    __             
                 |  |  |  | |  | |    /  \     |  _  \  |  |  /  |          
                  \  \/   | |  | |   /    \    | | | |  |  | /  /          
                 / \  \   | |__| |  /  /\  \   | |_| |  |  |/  /          
                |  |  |   |  __  | /  /__\  \  |    /   |      \           
                |  |  |   | |  | | |   __   |  |    \   |  |\   \          
                \     /   | |  | | |  |  |  |  | |\  \  |  | \   \       
                 \___/    |_|  |_| |__|  |__|  |_| \__\ |__|  \__/        
                                                                              
                      - O R C A' S   B I G   F R I E N D -                    
                                      &                                       
                       - I N T E G R A L  F E E D E R -                       
                                                                              
 v1 FN, 2020, v2 2021                                                         
------------------------------------------------------------------------------


Reading SHARK input file methanol.SHARKINP.tmp ... ok
----------------------
SHARK INTEGRAL PACKAGE
----------------------

Number of atoms                             ...      6
Number of basis functions                   ...     48
Number of shells                            ...     24
Maximum angular momentum                    ...      2
Integral batch strategy                     ... SHARK/LIBINT Hybrid
RI-J (if used) integral strategy            ... SPLIT-RIJ (Revised 2003 algorithm where possible)
Printlevel                                  ...      1
Contraction scheme used                     ... SEGMENTED contraction
Coulomb Range Separation                    ... NOT USED
Exchange Range Separation                   ... NOT USED
Finite Nucleus Model                        ... NOT USED
Auxiliary Coulomb fitting basis             ... NOT available
Auxiliary J/K fitting basis                 ... NOT available
Auxiliary Correlation fitting basis         ... NOT available
Auxiliary 'external' fitting basis          ... NOT available
Integral threshold                          ...     2.500000e-11
Primitive cut-off                           ...     2.500000e-12
Primitive pair pre-selection threshold      ...     2.500000e-12

Calculating pre-screening integrals         ... done (  0.0 sec) Dimension = 24
Organizing shell pair data                  ... done (  0.0 sec)
Shell pair information
Total number of shell pairs                 ...       300
Shell pairs after pre-screening             ...       300
Total number of primitive shell pairs       ...      1028
Primitive shell pairs kept                  ...       940
          la=0 lb=0:    105 shell pairs
          la=1 lb=0:    112 shell pairs
          la=1 lb=1:     36 shell pairs
          la=2 lb=0:     28 shell pairs
          la=2 lb=1:     16 shell pairs
          la=2 lb=2:      3 shell pairs

Calculating one electron integrals          ... done (  0.0 sec)
Calculating Nuclear repulsion               ... done (  0.0 sec) ENN=     40.345375682488 Eh

SHARK setup successfully completed in   0.2 seconds

Maximum memory used throughout the entire GTOINT-calculation: 7.0 MB
-------------------------------------------------------------------------------
                                 ORCA SCF
-------------------------------------------------------------------------------

------------
SCF SETTINGS
------------
Hamiltonian:
 Density Functional     Method          .... DFT(GTOs)
 Exchange Functional    Exchange        .... PBE
   PBE kappa parameter   XKappa         ....  0.804000
   PBE mue parameter    XMuePBE         ....  0.219520
 Correlation Functional Correlation     .... PBE
   PBE beta parameter  CBetaPBE         ....  0.066725
 LDA part of GGA corr.  LDAOpt          .... PW91-LDA
 Gradients option       PostSCFGGA      .... off
 Hybrid DFT is turned on
   Fraction HF Exchange ScalHFX         ....  0.250000
   Scaling of DF-GGA-X  ScalDFX         ....  0.750000
   Scaling of DF-GGA-C  ScalDFC         ....  1.000000
   Scaling of DF-LDA-C  ScalLDAC        ....  1.000000
   Perturbative correction              ....  0.000000
   Density functional embedding theory  .... OFF
   NL short-range parameter             ....  6.900000


General Settings:
 Integral files         IntName         .... methanol
 Hartree-Fock type      HFTyp           .... RHF
 Total Charge           Charge          ....    0
 Multiplicity           Mult            ....    1
 Number of Electrons    NEL             ....   18
 Basis Dimension        Dim             ....   48
 Nuclear Repulsion      ENuc            ....     40.3453756825 Eh

Convergence Acceleration:
 DIIS                   CNVDIIS         .... on
   Start iteration      DIISMaxIt       ....    12
   Startup error        DIISStart       ....  0.200000
   # of expansion vecs  DIISMaxEq       ....     5
   Bias factor          DIISBfac        ....   1.050
   Max. coefficient     DIISMaxC        ....  10.000
 Trust-Rad. Augm. Hess. CNVTRAH         .... auto
   Auto Start mean grad. ratio tolernc. ....  1.125000
   Auto Start start iteration           ....     1
   Auto Start num. interpolation iter.  ....    10
   Max. Number of Micro iterations      ....    16
   Max. Number of Macro iterations      .... Maxiter - #DIIS iter
   Number of Davidson start vectors     ....     2
   Converg. threshold I  (grad. norm)   ....   1.000e-05
   Converg. threshold II (energy diff.) ....   1.000e-08
   Grad. Scal. Fac. for Micro threshold ....   0.100
   Minimum threshold for Micro iter.    ....   0.010
   NR start threshold (gradient norm)   ....   0.001
   Initial trust radius                 ....   0.400
   Minimum AH scaling param. (alpha)    ....   1.000
   Maximum AH scaling param. (alpha)    .... 1000.000
   Orbital update algorithm             .... Taylor
   White noise on init. David. guess    .... on
   Maximum white noise                  ....   0.010
   Quad. conv. algorithm                .... NR
 SOSCF                  CNVSOSCF        .... on
   Start iteration      SOSCFMaxIt      ....   150
   Startup grad/error   SOSCFStart      ....  0.003300
 Level Shifting         CNVShift        .... on
   Level shift para.    LevelShift      ....    0.2500
   Turn off err/grad.   ShiftErr        ....    0.0010
 Zerner damping         CNVZerner       .... off
 Static damping         CNVDamp         .... on
   Fraction old density DampFac         ....    0.7000
   Max. Damping (<1)    DampMax         ....    0.9800
   Min. Damping (>=0)   DampMin         ....    0.0000
   Turn off err/grad.   DampErr         ....    0.1000
 Fernandez-Rico         CNVRico         .... off

SCF Procedure:
 Maximum # iterations   MaxIter         ....   125
 SCF integral mode      SCFMode         .... Direct
   Integral package                     .... SHARK and LIBINT hybrid scheme
 Reset frequency        DirectResetFreq ....    20
 Integral Threshold     Thresh          ....  2.500e-11 Eh
 Primitive CutOff       TCut            ....  2.500e-12 Eh

Convergence Tolerance:
 Convergence Check Mode ConvCheckMode   .... Total+1el-Energy
 Convergence forced     ConvForced      .... 1
 Energy Change          TolE            ....  1.000e-08 Eh
 1-El. energy change                    ....  1.000e-05 Eh
 Orbital Gradient       TolG            ....  1.000e-05
 Orbital Rotation angle TolX            ....  1.000e-05
 DIIS Error             TolErr          ....  5.000e-07


Diagonalization of the overlap matrix:
Smallest eigenvalue                        ... 1.167e-02
Time for diagonalization                   ...    0.001 sec
Threshold for overlap eigenvalues          ... 1.000e-08
Number of eigenvalues below threshold      ... 0
Time for construction of square roots      ...    0.009 sec
Total time needed                          ...    0.010 sec

---------------------
INITIAL GUESS: MOREAD
---------------------
Guess MOs are being read from file: methanol.ges
Input Geometry matches current geometry (good)
Input basis set matches current basis set (good)
MOs were renormalized
MOs were reorthogonalized (Cholesky)
                      ------------------
                      INITIAL GUESS DONE (   0.0 sec)
                      ------------------
-------------------
DFT GRID GENERATION
-------------------

General Integration Accuracy     IntAcc      ... 4.388
Radial Grid Type                 RadialGrid  ... OptM3 with GC (2021)
Angular Grid (max. ang.)         AngularGrid ... 4 (Lebedev-302)
Angular grid pruning method      GridPruning ... 4 (adaptive)
Weight generation scheme         WeightScheme... Becke
Basis function cutoff            BFCut       ... 1.0000e-11
Integration weight cutoff        WCut        ... 1.0000e-14
Angular grids for H and He will be reduced by one unit
Partially contracted basis set               ... off
Rotationally invariant grid construction     ... off

Total number of grid points                  ...    25310
Total number of batches                      ...      398
Average number of points per batch           ...       63
Average number of grid points per atom       ...     4218
Time for grid setup =    0.176 sec

--------------
SCF ITERATIONS
--------------
ITER       Energy         Delta-E        Max-DP      RMS-DP      [F,P]     Damp
               ***  Starting incremental Fock matrix formation  ***
                      *** Initiating the SOSCF procedure ***
                      *** Re-Reading the Fockian *** 
                      *** Removing any level shift *** 
ITER      Energy       Delta-E        Grad      Rot      Max-DP    RMS-DP
  0   -115.49687244 -115.4968724381  0.000140  0.000140  0.000149  0.000018
               *** Restarting incremental Fock matrix formation ***
  1   -115.49687261  -0.0000001716  0.000015  0.000028  0.000068  0.000007
  2   -115.49687262  -0.0000000063  0.000005  0.000005  0.000018  0.000001
  3   -115.49687262  -0.0000000000  0.000005  0.000003  0.000007  0.000001
                  ***Gradient check signals convergence***
              ***Rediagonalizing the Fockian in SOSCF/NRSCF***

               *****************************************************
               *                     SUCCESS                       *
               *           SCF CONVERGED AFTER   4 CYCLES          *
               *****************************************************


----------------
TOTAL SCF ENERGY
----------------

Total Energy       :         -115.49687262 Eh           -3142.82968 eV

Components:
Nuclear Repulsion  :           40.34537568 Eh            1097.85349 eV
Electronic Energy  :         -155.84224830 Eh           -4240.68317 eV
One Electron Energy:         -236.98239410 Eh           -6448.61878 eV
Two Electron Energy:           81.14014580 Eh            2207.93562 eV

Virial components:
Potential Energy   :         -229.98466855 Eh           -6258.20099 eV
Kinetic Energy     :          114.48779593 Eh            3115.37131 eV
Virial Ratio       :            2.00881384


DFT components:
N(Alpha)           :        9.000000777103 electrons
N(Beta)            :        9.000000777103 electrons
N(Total)           :       18.000001554205 electrons
E(X)               :      -11.065687889313 Eh       
E(C)               :       -0.588060491342 Eh       
E(XC)              :      -11.653748380655 Eh       
DFET-embed. en.    :        0.000000000000 Eh       

---------------
SCF CONVERGENCE
---------------

  Last Energy change         ...   -3.0026e-10  Tolerance :   1.0000e-08
  Last MAX-Density change    ...    1.6805e-06  Tolerance :   1.0000e-07
  Last RMS-Density change    ...    9.7892e-08  Tolerance :   5.0000e-09
  Last Orbital Gradient      ...    6.7572e-07  Tolerance :   1.0000e-05
  Last Orbital Rotation      ...    5.0553e-07  Tolerance :   1.0000e-05

             **** THE GBW FILE WAS UPDATED (methanol.gbw) ****
             **** DENSITY methanol.scfp WAS UPDATED ****
             **** ENERGY FILE WAS UPDATED (methanol.en.tmp) ****
             **** THE GBW FILE WAS UPDATED (methanol.gbw) ****
             **** DENSITY methanol.scfp WAS UPDATED ****
----------------
ORBITAL ENERGIES
----------------

  NO   OCC          E(Eh)            E(eV) 
   0   2.0000     -19.199828      -522.4539 
   1   2.0000     -10.272430      -279.5270 
   2   2.0000      -1.027096       -27.9487 
   3   2.0000      -0.681898       -18.5554 
   4   2.0000      -0.513115       -13.9626 
   5   2.0000      -0.451960       -12.2985 
   6   2.0000      -0.434760       -11.8304 
   7   2.0000      -0.337192        -9.1755 
   8   2.0000      -0.275822        -7.5055 
   9   0.0000       0.061551         1.6749 
  10   0.0000       0.108024         2.9395 
  11   0.0000       0.147526         4.0144 
  12   0.0000       0.148433         4.0391 
  13   0.0000       0.208418         5.6713 
  14   0.0000       0.470575        12.8050 
  15   0.0000       0.488105        13.2820 
  16   0.0000       0.498875        13.5751 
  17   0.0000       0.593634        16.1536 
  18   0.0000       0.658018        17.9056 
  19   0.0000       0.670920        18.2567 
  20   0.0000       0.685126        18.6432 
  21   0.0000       0.723242        19.6804 
  22   0.0000       0.967095        26.3160 
  23   0.0000       0.972366        26.4594 
  24   0.0000       1.033344        28.1187 
  25   0.0000       1.231913        33.5221 
  26   0.0000       1.314663        35.7738 
  27   0.0000       1.460384        39.7391 
  28   0.0000       1.478021        40.2190 
  29   0.0000       1.523107        41.4458 
  30   0.0000       1.562997        42.5313 
  31   0.0000       1.714833        46.6630 
  32   0.0000       1.770173        48.1689 
  33   0.0000       1.827097        49.7178 
  34   0.0000       1.885490        51.3068 
  35   0.0000       1.987383        54.0794 
  36   0.0000       2.151438        58.5436 
  37   0.0000       2.211089        60.1668 
  38   0.0000       2.330536        63.4171 
  39   0.0000       2.365895        64.3793 
  40   0.0000       2.658808        72.3498 
  41   0.0000       2.805909        76.3527 
  42   0.0000       2.833038        77.0909 
  43   0.0000       2.957529        80.4785 
  44   0.0000       3.074990        83.6747 
  45   0.0000       3.181143        86.5633 
  46   0.0000       3.317500        90.2738 
  47   0.0000       3.748272       101.9957 

                    ********************************
                    * MULLIKEN POPULATION ANALYSIS *
                    ********************************

-----------------------
MULLIKEN ATOMIC CHARGES
-----------------------
   0 C :    0.074342
   1 H :    0.028069
   2 O :   -0.363488
   3 H :    0.028061
   4 H :    0.050016
   5 H :    0.182999
Sum of atomic charges:   -0.0000000

--------------------------------
MULLIKEN REDUCED ORBITAL CHARGES
--------------------------------
  0 C s       :     3.054141  s :     3.054141
      pz      :     1.016082  p :     2.814339
      px      :     0.733512
      py      :     1.064745
      dz2     :     0.008548  d :     0.057178
      dxz     :     0.016079
      dyz     :     0.004702
      dx2y2   :     0.015910
      dxy     :     0.011940
  1 H s       :     0.949980  s :     0.949980
      pz      :     0.012831  p :     0.021950
      px      :     0.003874
      py      :     0.005245
  2 O s       :     3.757823  s :     3.757823
      pz      :     1.882103  p :     4.592082
      px      :     1.312224
      py      :     1.397756
      dz2     :     0.001914  d :     0.013582
      dxz     :     0.001924
      dyz     :     0.001253
      dx2y2   :     0.006223
      dxy     :     0.002268
  3 H s       :     0.949990  s :     0.949990
      pz      :     0.009428  p :     0.021950
      px      :     0.003874
      py      :     0.008647
  4 H s       :     0.928040  s :     0.928040
      pz      :     0.005653  p :     0.021943
      px      :     0.003014
      py      :     0.013276
  5 H s       :     0.750383  s :     0.750383
      pz      :     0.019267  p :     0.066618
      px      :     0.015413
      py      :     0.031938


                     *******************************
                     * LOEWDIN POPULATION ANALYSIS *
                     *******************************

----------------------
LOEWDIN ATOMIC CHARGES
----------------------
   0 C :    0.039416
   1 H :    0.006809
   2 O :   -0.171767
   3 H :    0.006809
   4 H :    0.025485
   5 H :    0.093247

-------------------------------
LOEWDIN REDUCED ORBITAL CHARGES
-------------------------------
  0 C s       :     2.856874  s :     2.856874
      pz      :     1.067076  p :     2.975213
      px      :     0.821904
      py      :     1.086234
      dz2     :     0.020120  d :     0.128496
      dxz     :     0.036470
      dyz     :     0.012724
      dx2y2   :     0.035379
      dxy     :     0.023804
  1 H s       :     0.930112  s :     0.930112
      pz      :     0.036688  p :     0.063079
      px      :     0.013212
      py      :     0.013179
  2 O s       :     3.467894  s :     3.467894
      pz      :     1.850831  p :     4.679164
      px      :     1.363988
      py      :     1.464345
      dz2     :     0.003285  d :     0.024709
      dxz     :     0.002978
      dyz     :     0.001718
      dx2y2   :     0.012569
      dxy     :     0.004158
  3 H s       :     0.930114  s :     0.930114
      pz      :     0.026096  p :     0.063077
      px      :     0.013211
      py      :     0.023770
  4 H s       :     0.912993  s :     0.912993
      pz      :     0.013437  p :     0.061521
      px      :     0.010374
      py      :     0.037711
  5 H s       :     0.739307  s :     0.739307
      pz      :     0.050033  p :     0.167445
      px      :     0.033014
      py      :     0.084399


                      *****************************
                      * MAYER POPULATION ANALYSIS *
                      *****************************

  NA   - Mulliken gross atomic population
  ZA   - Total nuclear charge
  QA   - Mulliken gross atomic charge
  VA   - Mayer's total valence
  BVA  - Mayer's bonded valence
  FA   - Mayer's free valence

  ATOM       NA         ZA         QA         VA         BVA        FA
  0 C      5.9257     6.0000     0.0743     3.9496     3.9496    -0.0000
  1 H      0.9719     1.0000     0.0281     0.9748     0.9748    -0.0000
  2 O      8.3635     8.0000    -0.3635     2.0281     2.0281    -0.0000
  3 H      0.9719     1.0000     0.0281     0.9748     0.9748    -0.0000
  4 H      0.9500     1.0000     0.0500     0.9818     0.9818     0.0000
  5 H      0.8170     1.0000     0.1830     0.9970     0.9970     0.0000

  Mayer bond orders larger than 0.100000
B(  0-C ,  1-H ) :   0.9716 B(  0-C ,  2-O ) :   1.0190 B(  0-C ,  3-H ) :   0.9716 
B(  0-C ,  4-H ) :   0.9779 B(  2-O ,  5-H ) :   0.9761 

-------
TIMINGS
-------

Total SCF time: 0 days 0 hours 0 min 1 sec 

Total time                  ....       1.969 sec
Sum of individual times     ....       1.702 sec  ( 86.4%)

Fock matrix formation       ....       1.499 sec  ( 76.1%)
  XC integration            ....       1.140 sec  ( 76.0% of F)
    Basis function eval.    ....       0.311 sec  ( 27.3% of XC)
    Density eval.           ....       0.238 sec  ( 20.9% of XC)
    XC-Functional eval.     ....       0.298 sec  ( 26.2% of XC)
    XC-Potential eval.      ....       0.105 sec  (  9.2% of XC)
Diagonalization             ....       0.002 sec  (  0.1%)
Density matrix formation    ....       0.000 sec  (  0.0%)
Population analysis         ....       0.016 sec  (  0.8%)
Initial guess               ....       0.003 sec  (  0.2%)
Orbital Transformation      ....       0.000 sec  (  0.0%)
Orbital Orthonormalization  ....       0.001 sec  (  0.1%)
DIIS solution               ....       0.000 sec  (  0.0%)
SOSCF solution              ....       0.005 sec  (  0.3%)
Grid generation             ....       0.176 sec  (  8.9%)

Maximum memory used throughout the entire SCF-calculation: 227.5 MB

---------------------------------------------------------------------------------

                       ORCA sTDA CALCULATION

                       please cite in your paper           
 orginal sTDA method:  S. Grimme, J. Chem. Phys. 138, 244104 (2013)           

---------------------------------------------------------------------------------


spectral range up to (eV)      ...   10.000000
occ. MO cut-off (eV)           ...   -22.325101
virt. MO cut-off (eV)          ...   16.494507
perturbation threshold         ...   1.000e-04 
MOs in sTDA                    ...          15 
occ. MOs in sTDA               ...           6 
virt. in sTDA                  ...           9 
calculate triplets           ...   no  

Calculating the dipole lengths integrals ... 
Transforming integrals ... 
Calculating the dipole velocity integrals ... 
Transforming integrals ... 
Calculating magnetic dipole integrals ... 
Transforming integrals ... 

SCF atom population (using active MOs):

   3.563   0.963   4.969   0.963   0.946   0.595

Number of electrons in sTDA:   12.000

ax(DF)   :  0.2500
s^k      :  2.0000
beta  (J):  0.6575
alpha (K):  1.5400

hardness table read
setting up gammas ...
computing q(ij,n)
memory needed for q data:             0.0 MB 
memory available for q data:       2500.0 MB 

CSF included by energy:            5 
CSF considered in PT2:            49 

ordered frontier orbitals
           eV         # centers 
   0     -18.555       4.6
   1     -13.963       3.3
   2     -12.298       3.2
   3     -11.830       3.0
   4      -9.175       3.0
   5      -7.505       1.8

   6       1.675       3.4
   7       2.939       5.2
   8       4.014       3.0
   9       4.039       3.4
  10       5.671       2.9
  11      12.805       3.4
  12      13.282       3.0
  13      13.575       1.8
  14      16.154       2.9

           eV        nm       excitation i->a                     eV 
   0      7.09     174.8     5 ->   6      gap,J,K:    9.180     2.120     0.017
   1      8.55     145.0     5 ->   7      gap,J,K:   10.445     1.939     0.023
   2      8.90     139.3     4 ->   6      gap,J,K:   10.850     2.037     0.043
   3      9.79     126.6     5 ->   9      gap,J,K:   11.545     1.835     0.041
   4      9.99     124.2     5 ->   8      gap,J,K:   11.520     1.857     0.162

average / max PT2 energy lowering (eV):       0.006       0.013

CSF included by PT:                    16 
total number of CSF included:          21 
 

calculating TDA matrix ... done
diagonalizing ...using LAPACKE_dsyevr ...done

    5 roots found, lowest/highest eigenvalue :     7.037     9.904

excitation energies, transition moments and amplitudes

molecular weight:   32.042
state   eV        nm        fL         fV        Rl        RV
   0   7.037     176.2   0.002580   0.004510   0.000075  -0.001428     0.99 (   5->   6)   -0.15 (   5->   7)    0.04 (   2->   6)
   1   8.574     144.6   0.056445   0.086550  -0.003800   0.003207    -0.99 (   5->   7)   -0.16 (   5->   6)    0.03 (   2->   6)
   2   8.859     139.9   0.008738   0.017830  -2.734523  -0.004002    -0.99 (   4->   6)    0.08 (   4->   7)   -0.07 (   3->   6)
   3   9.776     126.8   0.040226   0.040682   0.020731   0.030483     0.99 (   5->   9)   -0.09 (   5->  10)   -0.04 (   4->   8)
   4   9.904     125.2   0.081644   0.077925  -5.333750  -0.034941    -0.97 (   5->   8)    0.23 (   4->   7)    0.09 (   4->   9)

-----------------------------------------------------------------------------
         ABSORPTION SPECTRUM VIA TRANSITION ELECTRIC DIPOLE MOMENTS
-----------------------------------------------------------------------------
State   Energy  Wavelength   fosc         T2         TX        TY        TZ  
        (cm-1)    (nm)                  (au**2)     (au)      (au)      (au) 
-----------------------------------------------------------------------------
   0   56759.0    176.2   0.002579975   0.01496   0.00000   0.03149  -0.11821
   1   69154.8    144.6   0.056445171   0.26871  -0.00002  -0.13342   0.50090
   2   71456.1    139.9   0.008738343   0.04026   0.12356  -0.15277  -0.04068
   3   78850.9    126.8   0.040226283   0.16795   0.00023   0.10556  -0.39599
   4   79878.0    125.2   0.081643793   0.33649   0.55596   0.15989   0.04278

-----------------------------------------------------------------------------
         ABSORPTION SPECTRUM VIA TRANSITION VELOCITY DIPOLE MOMENTS
-----------------------------------------------------------------------------
State   Energy  Wavelength   fosc         P2         PX        PY        PZ  
        (cm-1)    (nm)                  (au**2)     (au)      (au)      (au) 
-----------------------------------------------------------------------------
   0   56759.0    176.2   0.004510236   0.00175  -0.00000  -0.01076   0.04042
   1   69154.8    144.6   0.086550355   0.04091  -0.00000  -0.05205   0.19544
   2   71456.1    139.9   0.017830427   0.00871   0.02462  -0.08698  -0.02316
   3   78850.9    126.8   0.040681991   0.02192   0.00008   0.03813  -0.14307
   4   79878.0    125.2   0.077924545   0.04254   0.20323   0.03400   0.00913

-------------------------------------------------------------------
                             CD SPECTRUM
-------------------------------------------------------------------
State   Energy Wavelength       R         MX        MY        MZ   
        (cm-1)   (nm)       (1e40*cgs)   (au)      (au)      (au)  
-------------------------------------------------------------------
   0   56759.0    176.2      0.00008  -0.02006   0.31037   0.08269
   1   69154.8    144.6     -0.00380  -1.12106  -1.81839  -0.48437
   2   71456.1    139.9     -2.73452   0.14430  -0.06873   0.41121
   3   78850.9    126.8      0.02073   0.53621   1.35634   0.36208
   4   79878.0    125.2     -5.33375  -0.05674  -0.16613   1.88711

sTDA done

Total run time:        0.100 sec

           *** ORCA-CIS/TD-DFT FINISHED WITHOUT ERROR ***

Maximum memory used throughout the entire CIS-calculation: 43.1 MB

-------------------------   --------------------
FINAL SINGLE POINT ENERGY      -115.496872616442
-------------------------   --------------------


                            ***************************************
                            *     ORCA property calculations      *
                            ***************************************

                                    ---------------------
                                    Active property flags
                                    ---------------------
   (+) Dipole Moment


------------------------------------------------------------------------------
                       ORCA ELECTRIC PROPERTIES CALCULATION
------------------------------------------------------------------------------

Dipole Moment Calculation                       ... on
Quadrupole Moment Calculation                   ... off
Polarizability Calculation                      ... off
GBWName                                         ... methanol.gbw
Electron density                                ... methanol.scfp
The origin for moment calculation is the CENTER OF MASS  = (-7.892278,  6.166966 -0.016705)

-------------
DIPOLE MOMENT
-------------
                                X             Y             Z
Electronic contribution:      1.82567       0.14682       0.03909
Nuclear contribution   :     -2.17413      -0.69374      -0.18478
                        -----------------------------------------
Total Dipole Moment    :     -0.34846      -0.54691      -0.14568
                        -----------------------------------------
Magnitude (a.u.)       :      0.66465
Magnitude (Debye)      :      1.68942



--------------------
Rotational spectrum 
--------------------
 
Rotational constants in cm-1:     4.076050     0.847800     0.816681 
Rotational constants in MHz : 122196.908803 25416.417758 24483.467785 

 Dipole components along the rotational axes: 
x,y,z [a.u.] :    -0.307839    -0.589068     0.000002 
x,y,z [Debye]:    -0.782464    -1.497291     0.000006 

 

Timings for individual modules:

Sum of individual times         ...        2.353 sec (=   0.039 min)
GTO integral calculation        ...        0.213 sec (=   0.004 min)   9.1 %
SCF iterations                  ...        2.002 sec (=   0.033 min)  85.1 %
CIS module                      ...        0.138 sec (=   0.002 min)   5.9 %
                             ****ORCA TERMINATED NORMALLY****
TOTAL RUN TIME: 0 days 0 hours 0 minutes 2 seconds 555 msec
