 Entering Gaussian System, Link 0=g16
 Input=O2.gjf
 Output=O2.log
 Initial command:
 /opt/g16/l1.exe "/scratch/jxzou/gaussian/Gau-297132.inp" -scrdir="/scratch/jxzou/gaussian/"
 Entering Link 1 = /opt/g16/l1.exe PID=    297133.
  
 Copyright (c) 1988-2021, Gaussian, Inc.  All Rights Reserved.
  
 This is part of the Gaussian(R) 16 program.  It is based on
 the Gaussian(R) 09 system (copyright 2009, Gaussian, Inc.),
 the Gaussian(R) 03 system (copyright 2003, Gaussian, Inc.),
 the Gaussian(R) 98 system (copyright 1998, Gaussian, Inc.),
 the Gaussian(R) 94 system (copyright 1995, Gaussian, Inc.),
 the Gaussian 92(TM) system (copyright 1992, Gaussian, Inc.),
 the Gaussian 90(TM) system (copyright 1990, Gaussian, Inc.),
 the Gaussian 88(TM) system (copyright 1988, Gaussian, Inc.),
 the Gaussian 86(TM) system (copyright 1986, Carnegie Mellon
 University), and the Gaussian 82(TM) system (copyright 1983,
 Carnegie Mellon University). Gaussian is a federally registered
 trademark of Gaussian, Inc.
  
 This software contains proprietary and confidential information,
 including trade secrets, belonging to Gaussian, Inc.
  
 This software is provided under written license and may be
 used, copied, transmitted, or stored only in accord with that
 written license.
  
 The following legend is applicable only to US Government
 contracts under FAR:
  
                    RESTRICTED RIGHTS LEGEND
  
 Use, reproduction and disclosure by the US Government is
 subject to restrictions as set forth in subparagraphs (a)
 and (c) of the Commercial Computer Software - Restricted
 Rights clause in FAR 52.227-19.
  
 Gaussian, Inc.
 340 Quinnipiac St., Bldg. 40, Wallingford CT 06492
  
  
 ---------------------------------------------------------------
 Warning -- This program may not be used in any manner that
 competes with the business of Gaussian, Inc. or will provide
 assistance to any competitor of Gaussian, Inc.  The licensee
 of this program is prohibited from giving any competitor of
 Gaussian, Inc. access to this program.  By using this program,
 the user acknowledges that Gaussian, Inc. is engaged in the
 business of creating and licensing software in the field of
 computational chemistry and represents and warrants to the
 licensee that it is not a competitor of Gaussian, Inc. and that
 it will not use this program in any manner prohibited above.
 ---------------------------------------------------------------
  

 Cite this work as:
 Gaussian 16, Revision C.02,
 M. J. Frisch, G. W. Trucks, H. B. Schlegel, G. E. Scuseria, 
 M. A. Robb, J. R. Cheeseman, G. Scalmani, V. Barone, 
 G. A. Petersson, H. Nakatsuji, X. Li, M. Caricato, A. V. Marenich, 
 J. Bloino, B. G. Janesko, R. Gomperts, B. Mennucci, H. P. Hratchian, 
 J. V. Ortiz, A. F. Izmaylov, J. L. Sonnenberg, D. Williams-Young, 
 F. Ding, F. Lipparini, F. Egidi, J. Goings, B. Peng, A. Petrone, 
 T. Henderson, D. Ranasinghe, V. G. Zakrzewski, J. Gao, N. Rega, 
 G. Zheng, W. Liang, M. Hada, M. Ehara, K. Toyota, R. Fukuda, 
 J. Hasegawa, M. Ishida, T. Nakajima, Y. Honda, O. Kitao, H. Nakai, 
 T. Vreven, K. Throssell, J. A. Montgomery, Jr., J. E. Peralta, 
 F. Ogliaro, M. J. Bearpark, J. J. Heyd, E. N. Brothers, K. N. Kudin, 
 V. N. Staroverov, T. A. Keith, R. Kobayashi, J. Normand, 
 K. Raghavachari, A. P. Rendell, J. C. Burant, S. S. Iyengar, 
 J. Tomasi, M. Cossi, J. M. Millam, M. Klene, C. Adamo, R. Cammi, 
 J. W. Ochterski, R. L. Martin, K. Morokuma, O. Farkas, 
 J. B. Foresman, and D. J. Fox, Gaussian, Inc., Wallingford CT, 2019.
 
 ******************************************
 Gaussian 16:  ES64L-G16RevC.02  7-Dec-2021
                10-Jul-2023 
 ******************************************
 %mem=1GB
 %nprocshared=1
 Will use up to    1 processors via shared memory.
 %chk=O2.chk
 --------------------------------------------------
 #p UCAM-B3LYP/def2TZVP nosymm int=nobasistransform
 --------------------------------------------------
 1/38=1,172=1/1;
 2/12=2,15=1,17=6,18=5,40=1/2;
 3/5=44,7=101,11=2,25=1,30=1,60=-1,74=-40,116=2/1,2,3;
 4//1;
 5/5=2,38=5/2;
 6/7=2,8=2,9=2,10=2,28=1/1;
 99/5=1,9=1/99;
 Leave Link    1 at Mon Jul 10 16:31:49 2023, MaxMem=   134217728 cpu:               0.0 elap:               0.0
 (Enter /opt/g16/l101.exe)
 -----
 title
 -----
 Symbolic Z-matrix:
 Charge =  0 Multiplicity = 3
 O                     0.        0.        0. 
 O                     0.        0.        1.1616 
 
 ITRead=  0  0
 MicOpt= -1 -1
 NAtoms=      2 NQM=        2 NQMF=       0 NMMI=      0 NMMIF=      0
                NMic=       0 NMicF=      0.
                    Isotopes and Nuclear Properties:
 (Nuclear quadrupole moments (NQMom) in fm**2, nuclear magnetic moments (NMagM)
  in nuclear magnetons)

  Atom         1           2
 IAtWgt=          16          16
 AtmWgt=  15.9949146  15.9949146
 NucSpn=           0           0
 AtZEff=  -0.0000000  -0.0000000
 NQMom=    0.0000000   0.0000000
 NMagM=    0.0000000   0.0000000
 AtZNuc=   8.0000000   8.0000000
 Leave Link  101 at Mon Jul 10 16:31:49 2023, MaxMem=   134217728 cpu:               0.1 elap:               0.1
 (Enter /opt/g16/l202.exe)
                          Input orientation:                          
 ---------------------------------------------------------------------
 Center     Atomic      Atomic             Coordinates (Angstroms)
 Number     Number       Type             X           Y           Z
 ---------------------------------------------------------------------
      1          8           0        0.000000    0.000000    0.000000
      2          8           0        0.000000    0.000000    1.161600
 ---------------------------------------------------------------------
 Symmetry turned off by external request.
 Stoichiometry    O2(3)
 Framework group  D*H[C*(O.O)]
 Deg. of freedom     1
 Full point group                 D*H     NOp   8
 Rotational constants (GHZ):           0.0000000          46.8330090          46.8330090
 Leave Link  202 at Mon Jul 10 16:31:49 2023, MaxMem=   134217728 cpu:               0.0 elap:               0.0
 (Enter /opt/g16/l301.exe)
 Standard basis: def2TZVP (5D, 7F)
    62 basis functions,   102 primitive gaussians,    72 cartesian basis functions
     9 alpha electrons        7 beta electrons
       nuclear repulsion energy        29.1557691967 Hartrees.
 IExCor=20419 DFT=T Ex+Corr=CAM-B3LYP ExCW=0 ScaHFX=  1.000000
 ScaDFX=  1.000000  1.000000  1.000000  0.810000 ScalE2=  1.000000  1.000000
 IRadAn=      5 IRanWt=     -1 IRanGd=            0 ICorTp=0 IEmpDi=  4
 HFx  wShort=  0.000000 wLong=  0.330000 cFull=  0.190000 cShort=  0.000000 cLong=  0.460000
 DFx  wShort=  0.000000 wLong=  0.330000 cFull=  0.190000 cShort=  0.000000 cLong=  0.460000
 NAtoms=    2 NActive=    2 NUniq=    2 SFac= 1.00D+00 NAtFMM=   60 NAOKFM=F Big=F
 Integral buffers will be    131072 words long.
 Raffenetti 2 integral format.
 Two-electron integral symmetry is turned off.
 Leave Link  301 at Mon Jul 10 16:31:50 2023, MaxMem=   134217728 cpu:               0.1 elap:               0.1
 (Enter /opt/g16/l302.exe)
 NPDir=0 NMtPBC=     1 NCelOv=     1 NCel=       1 NClECP=     1 NCelD=      1
         NCelK=      1 NCelE2=     1 NClLst=     1 CellRange=     0.0.
 One-electron integrals computed using PRISM.
   1 Symmetry operations used in ECPInt.
 ECPInt:  NShTT=     253 NPrTT=     864 LenC2=     253 LenP2D=     799.
 LDataN:  DoStor=T MaxTD1= 6 Len=  172
 NBasis=    62 RedAO= T EigKep=  1.21D-03  NBF=    62
 NBsUse=    62 1.00D-06 EigRej= -1.00D+00 NBFU=    62
 Precomputing XC quadrature grid using
 IXCGrd= 4 IRadAn=           5 IRanWt=          -1 IRanGd=           0 AccXCQ= 0.00D+00.
 Generated NRdTot=       0 NPtTot=           0 NUsed=           0 NTot=          32
 NSgBfM=    72    72    72    72    72 MxSgAt=     2 MxSgA2=     2.
 Leave Link  302 at Mon Jul 10 16:31:50 2023, MaxMem=   134217728 cpu:               0.1 elap:               0.2
 (Enter /opt/g16/l303.exe)
 DipDrv:  MaxL=1.
 Leave Link  303 at Mon Jul 10 16:31:50 2023, MaxMem=   134217728 cpu:               0.0 elap:               0.0
 (Enter /opt/g16/l401.exe)
 ExpMin= 1.75D-01 ExpMax= 2.70D+04 ExpMxC= 9.22D+02 IAcc=3 IRadAn=         5 AccDes= 0.00D+00
 Harris functional with IExCor=20419 and IRadAn=       5 diagonalized for initial guess.
 HarFok:  IExCor=20419 AccDes= 0.00D+00 IRadAn=         5 IDoV= 1 UseB2=F ITyADJ=14
 ICtDFT=  3500011 ScaDFX=  1.000000  1.000000  1.000000  1.000000
 FoFCou: FMM=F IPFlag=           0 FMFlag=      100000 FMFlg1=           0
         NFxFlg=           0 DoJE=T BraDBF=F KetDBF=T FulRan=T
         wScrn=  0.000000 ICntrl=       500 IOpCl=  0 I1Cent=   200000004 NGrid=           0
         NMat0=    1 NMatS0=      1 NMatT0=    0 NMatD0=    1 NMtDS0=    0 NMtDT0=    0
 Symmetry not used in FoFCou.
 Harris En= -145.869464102876    
 JPrj=0 DoOrth=F DoCkMO=F.
 Initial guess <Sx>= 0.0000 <Sy>= 0.0000 <Sz>= 1.0000 <S**2>= 2.0000 S= 1.0000
 Leave Link  401 at Mon Jul 10 16:31:50 2023, MaxMem=   134217728 cpu:               0.3 elap:               0.3
 (Enter /opt/g16/l502.exe)
 Keep R1 and R2 ints in memory in canonical form, NReq=9716692.
 FoFCou: FMM=F IPFlag=           0 FMFlag=           0 FMFlg1=           0
         NFxFlg=           0 DoJE=F BraDBF=F KetDBF=F FulRan=T
         wScrn=  0.000000 ICntrl=       600 IOpCl=  0 I1Cent=           0 NGrid=           0
         NMat0=    1 NMatS0=   1953 NMatT0=    0 NMatD0=    1 NMtDS0=    0 NMtDT0=    0
 Symmetry not used in FoFCou.
 Two-electron integral symmetry not used.
 UHF open shell SCF:
 Using DIIS extrapolation, IDIIS=  1040.
 NGot=   134217728 LenX=   126573982 LenY=   126568357
 Requested convergence on RMS density matrix=1.00D-08 within 128 cycles.
 Requested convergence on MAX density matrix=1.00D-06.
 Requested convergence on             energy=1.00D-06.
 No special actions if energy rises.
 Integral accuracy reduced to 1.0D-05 until final iterations.

 Cycle   1  Pass 0  IDiag  1:
 E= -150.209517154772    
 DIIS: error= 1.16D-01 at cycle   1 NSaved=   1.
 NSaved= 1 IEnMin= 1 EnMin= -150.209517154772     IErMin= 1 ErrMin= 1.16D-01
 ErrMax= 1.16D-01  0.00D+00 EMaxC= 1.00D-01 BMatC= 1.50D+00 BMatP= 1.50D+00
 IDIUse=3 WtCom= 0.00D+00 WtEn= 1.00D+00
 Coeff-Com:  0.100D+01
 Coeff-En:   0.100D+01
 Coeff:      0.100D+01
 Gap=     0.717 Goal=   None    Shift=    0.000
 Gap=     0.512 Goal=   None    Shift=    0.000
 GapD=    0.512 DampG=2.000 DampE=0.250 DampFc=0.5000 IDamp=-1.
 Damping current iteration by 5.00D-01
 RMSDP=7.78D-03 MaxDP=1.57D-01              OVMax= 1.66D-01

 Cycle   2  Pass 0  IDiag  1:
 E= -150.282911235313     Delta-E=       -0.073394080540 Rises=F Damp=T
 DIIS: error= 4.24D-02 at cycle   2 NSaved=   2.
 NSaved= 2 IEnMin= 2 EnMin= -150.282911235313     IErMin= 2 ErrMin= 4.24D-02
 ErrMax= 4.24D-02  0.00D+00 EMaxC= 1.00D-01 BMatC= 1.83D-01 BMatP= 1.50D+00
 IDIUse=3 WtCom= 5.76D-01 WtEn= 4.24D-01
 Coeff-Com: -0.374D+00 0.137D+01
 Coeff-En:   0.000D+00 0.100D+01
 Coeff:     -0.215D+00 0.122D+01
 Gap=     0.662 Goal=   None    Shift=    0.000
 Gap=     0.515 Goal=   None    Shift=    0.000
 RMSDP=2.07D-03 MaxDP=5.09D-02 DE=-7.34D-02 OVMax= 5.60D-02

 Cycle   3  Pass 0  IDiag  1:
 E= -150.342857646903     Delta-E=       -0.059946411590 Rises=F Damp=F
 DIIS: error= 2.62D-03 at cycle   3 NSaved=   3.
 NSaved= 3 IEnMin= 3 EnMin= -150.342857646903     IErMin= 3 ErrMin= 2.62D-03
 ErrMax= 2.62D-03  0.00D+00 EMaxC= 1.00D-01 BMatC= 5.60D-04 BMatP= 1.83D-01
 IDIUse=3 WtCom= 9.74D-01 WtEn= 2.62D-02
 Coeff-Com: -0.620D-03 0.321D-02 0.997D+00
 Coeff-En:   0.000D+00 0.000D+00 0.100D+01
 Coeff:     -0.604D-03 0.313D-02 0.997D+00
 Gap=     0.626 Goal=   None    Shift=    0.000
 Gap=     0.510 Goal=   None    Shift=    0.000
 RMSDP=2.47D-04 MaxDP=4.33D-03 DE=-5.99D-02 OVMax= 5.10D-03

 Cycle   4  Pass 0  IDiag  1:
 E= -150.343081583852     Delta-E=       -0.000223936950 Rises=F Damp=F
 DIIS: error= 1.07D-03 at cycle   4 NSaved=   4.
 NSaved= 4 IEnMin= 4 EnMin= -150.343081583852     IErMin= 4 ErrMin= 1.07D-03
 ErrMax= 1.07D-03  0.00D+00 EMaxC= 1.00D-01 BMatC= 5.25D-05 BMatP= 5.60D-04
 IDIUse=3 WtCom= 9.89D-01 WtEn= 1.07D-02
 Coeff-Com:  0.575D-02-0.169D-01-0.320D+00 0.133D+01
 Coeff-En:   0.000D+00 0.000D+00 0.000D+00 0.100D+01
 Coeff:      0.569D-02-0.167D-01-0.317D+00 0.133D+01
 Gap=     0.626 Goal=   None    Shift=    0.000
 Gap=     0.510 Goal=   None    Shift=    0.000
 RMSDP=9.33D-05 MaxDP=1.41D-03 DE=-2.24D-04 OVMax= 2.35D-03

 Cycle   5  Pass 0  IDiag  1:
 E= -150.343106071015     Delta-E=       -0.000024487163 Rises=F Damp=F
 DIIS: error= 1.11D-04 at cycle   5 NSaved=   5.
 NSaved= 5 IEnMin= 5 EnMin= -150.343106071015     IErMin= 5 ErrMin= 1.11D-04
 ErrMax= 1.11D-04  0.00D+00 EMaxC= 1.00D-01 BMatC= 1.27D-06 BMatP= 5.25D-05
 IDIUse=3 WtCom= 9.99D-01 WtEn= 1.11D-03
 Coeff-Com:  0.250D-03-0.129D-02-0.619D-01 0.167D+00 0.896D+00
 Coeff-En:   0.000D+00 0.000D+00 0.000D+00 0.000D+00 0.100D+01
 Coeff:      0.250D-03-0.129D-02-0.618D-01 0.167D+00 0.896D+00
 Gap=     0.627 Goal=   None    Shift=    0.000
 Gap=     0.510 Goal=   None    Shift=    0.000
 RMSDP=9.26D-06 MaxDP=1.30D-04 DE=-2.45D-05 OVMax= 1.73D-04

 Initial convergence to 1.0D-05 achieved.  Increase integral accuracy.
 Cycle   6  Pass 1  IDiag  1:
 E= -150.343102207099     Delta-E=        0.000003863916 Rises=F Damp=F
 DIIS: error= 1.71D-05 at cycle   1 NSaved=   1.
 NSaved= 1 IEnMin= 1 EnMin= -150.343102207099     IErMin= 1 ErrMin= 1.71D-05
 ErrMax= 1.71D-05  0.00D+00 EMaxC= 1.00D-01 BMatC= 3.47D-08 BMatP= 3.47D-08
 IDIUse=1 WtCom= 1.00D+00 WtEn= 0.00D+00
 Coeff-Com:  0.100D+01
 Coeff:      0.100D+01
 Gap=     0.627 Goal=   None    Shift=    0.000
 Gap=     0.510 Goal=   None    Shift=    0.000
 RMSDP=9.26D-06 MaxDP=1.30D-04 DE= 3.86D-06 OVMax= 2.47D-05

 Cycle   7  Pass 1  IDiag  1:
 E= -150.343102214093     Delta-E=       -0.000000006994 Rises=F Damp=F
 DIIS: error= 5.29D-06 at cycle   2 NSaved=   2.
 NSaved= 2 IEnMin= 2 EnMin= -150.343102214093     IErMin= 2 ErrMin= 5.29D-06
 ErrMax= 5.29D-06  0.00D+00 EMaxC= 1.00D-01 BMatC= 3.91D-09 BMatP= 3.47D-08
 IDIUse=1 WtCom= 1.00D+00 WtEn= 0.00D+00
 Coeff-Com:  0.148D+00 0.852D+00
 Coeff:      0.148D+00 0.852D+00
 Gap=     0.627 Goal=   None    Shift=    0.000
 Gap=     0.510 Goal=   None    Shift=    0.000
 RMSDP=3.54D-07 MaxDP=4.30D-06 DE=-6.99D-09 OVMax= 1.09D-05

 Cycle   8  Pass 1  IDiag  1:
 E= -150.343102214838     Delta-E=       -0.000000000746 Rises=F Damp=F
 DIIS: error= 2.48D-06 at cycle   3 NSaved=   3.
 NSaved= 3 IEnMin= 3 EnMin= -150.343102214838     IErMin= 3 ErrMin= 2.48D-06
 ErrMax= 2.48D-06  0.00D+00 EMaxC= 1.00D-01 BMatC= 5.06D-10 BMatP= 3.91D-09
 IDIUse=1 WtCom= 1.00D+00 WtEn= 0.00D+00
 Coeff-Com: -0.734D-01 0.111D+00 0.962D+00
 Coeff:     -0.734D-01 0.111D+00 0.962D+00
 Gap=     0.627 Goal=   None    Shift=    0.000
 Gap=     0.510 Goal=   None    Shift=    0.000
 RMSDP=1.92D-07 MaxDP=2.91D-06 DE=-7.46D-10 OVMax= 4.35D-06

 Cycle   9  Pass 1  IDiag  1:
 E= -150.343102214959     Delta-E=       -0.000000000121 Rises=F Damp=F
 DIIS: error= 8.52D-07 at cycle   4 NSaved=   4.
 NSaved= 4 IEnMin= 4 EnMin= -150.343102214959     IErMin= 4 ErrMin= 8.52D-07
 ErrMax= 8.52D-07  0.00D+00 EMaxC= 1.00D-01 BMatC= 4.99D-11 BMatP= 5.06D-10
 IDIUse=1 WtCom= 1.00D+00 WtEn= 0.00D+00
 Coeff-Com: -0.327D-01-0.313D-01 0.287D+00 0.777D+00
 Coeff:     -0.327D-01-0.313D-01 0.287D+00 0.777D+00
 Gap=     0.627 Goal=   None    Shift=    0.000
 Gap=     0.510 Goal=   None    Shift=    0.000
 RMSDP=3.92D-08 MaxDP=7.39D-07 DE=-1.21D-10 OVMax= 1.24D-06

 Cycle  10  Pass 1  IDiag  1:
 E= -150.343102214969     Delta-E=       -0.000000000010 Rises=F Damp=F
 DIIS: error= 7.02D-08 at cycle   5 NSaved=   5.
 NSaved= 5 IEnMin= 5 EnMin= -150.343102214969     IErMin= 5 ErrMin= 7.02D-08
 ErrMax= 7.02D-08  0.00D+00 EMaxC= 1.00D-01 BMatC= 4.88D-13 BMatP= 4.99D-11
 IDIUse=1 WtCom= 1.00D+00 WtEn= 0.00D+00
 Coeff-Com:  0.840D-02-0.163D-02-0.821D-01-0.143D+00 0.122D+01
 Coeff:      0.840D-02-0.163D-02-0.821D-01-0.143D+00 0.122D+01
 Gap=     0.627 Goal=   None    Shift=    0.000
 Gap=     0.510 Goal=   None    Shift=    0.000
 RMSDP=1.08D-08 MaxDP=1.61D-07 DE=-9.61D-12 OVMax= 1.90D-07

 Cycle  11  Pass 1  IDiag  1:
 E= -150.343102214969     Delta-E=       -0.000000000000 Rises=F Damp=F
 DIIS: error= 2.53D-09 at cycle   6 NSaved=   6.
 NSaved= 6 IEnMin= 6 EnMin= -150.343102214969     IErMin= 6 ErrMin= 2.53D-09
 ErrMax= 2.53D-09  0.00D+00 EMaxC= 1.00D-01 BMatC= 8.97D-16 BMatP= 4.88D-13
 IDIUse=1 WtCom= 1.00D+00 WtEn= 0.00D+00
 Coeff-Com: -0.757D-03 0.310D-03 0.749D-02 0.131D-01-0.136D+00 0.112D+01
 Coeff:     -0.757D-03 0.310D-03 0.749D-02 0.131D-01-0.136D+00 0.112D+01
 Gap=     0.627 Goal=   None    Shift=    0.000
 Gap=     0.510 Goal=   None    Shift=    0.000
 RMSDP=3.97D-10 MaxDP=5.48D-09 DE=-1.71D-13 OVMax= 5.28D-09

 SCF Done:  E(UCAM-B3LYP) =  -150.343102215     A.U. after   11 cycles
            NFock= 11  Conv=0.40D-09     -V/T= 2.0020
 <Sx>= 0.0000 <Sy>= 0.0000 <Sz>= 1.0000 <S**2>= 2.0086 S= 1.0029
 <L.S>=  0.00000000000    
 KE= 1.500356814101D+02 PE=-4.140043277999D+02 EE= 8.446977497806D+01
 Annihilation of the first spin contaminant:
 S**2 before annihilation     2.0086,   after     2.0000
 Leave Link  502 at Mon Jul 10 16:31:53 2023, MaxMem=   134217728 cpu:               2.4 elap:               2.5
 (Enter /opt/g16/l601.exe)
 Copying SCF densities to generalized density rwf, IOpCl= 1 IROHF=0.

 **********************************************************************

            Population analysis using the SCF Density.

 **********************************************************************

 Alpha  occ. eigenvalues --  -19.36134 -19.36115  -1.43182  -0.90982  -0.66423
 Alpha  occ. eigenvalues --   -0.66423  -0.63692  -0.37316  -0.37316
 Alpha virt. eigenvalues --    0.25338   0.36383   0.40684   0.40684   0.46481
 Alpha virt. eigenvalues --    0.50085   0.52370   0.52370   0.79541   1.25492
 Alpha virt. eigenvalues --    1.25492   1.37674   1.37674   1.68471   1.68471
 Alpha virt. eigenvalues --    1.88348   2.16731   2.16731   2.18382   2.42814
 Alpha virt. eigenvalues --    2.42814   2.55430   2.79433   2.80569   2.80569
 Alpha virt. eigenvalues --    2.98803   4.26127   4.60021   4.60021   4.69457
 Alpha virt. eigenvalues --    4.69457   4.92388   4.92388   5.12585   5.21906
 Alpha virt. eigenvalues --    5.21906   5.82931   5.82931   6.05899   6.05899
 Alpha virt. eigenvalues --    6.29379   6.29379   6.36676   6.36676   6.40671
 Alpha virt. eigenvalues --    6.49684   6.49684   7.38038   7.38038   7.57442
 Alpha virt. eigenvalues --    8.66897  43.02933  43.51871
  Beta  occ. eigenvalues --  -19.33044 -19.33002  -1.37667  -0.81558  -0.59548
  Beta  occ. eigenvalues --   -0.55454  -0.55454
  Beta virt. eigenvalues --   -0.04444  -0.04444   0.27923   0.37763   0.43094
  Beta virt. eigenvalues --    0.43094   0.46750   0.53251   0.55666   0.55666
  Beta virt. eigenvalues --    0.81399   1.29588   1.29588   1.41267   1.41267
  Beta virt. eigenvalues --    1.74848   1.74848   1.90619   2.20502   2.21192
  Beta virt. eigenvalues --    2.21192   2.49793   2.49793   2.59727   2.83960
  Beta virt. eigenvalues --    2.86666   2.86666   3.01444   4.28992   4.64119
  Beta virt. eigenvalues --    4.64119   4.72669   4.72669   4.99423   4.99423
  Beta virt. eigenvalues --    5.17152   5.29440   5.29440   5.89117   5.89117
  Beta virt. eigenvalues --    6.16991   6.16991   6.39434   6.39434   6.42903
  Beta virt. eigenvalues --    6.42903   6.44815   6.55521   6.55521   7.41949
  Beta virt. eigenvalues --    7.41949   7.60459   8.70807  43.06119  43.55031
          Condensed to atoms (all electrons):
               1          2
     1  O    7.914953   0.085047
     2  O    0.085047   7.914953
          Atomic-Atomic Spin Densities.
               1          2
     1  O    1.437047  -0.437047
     2  O   -0.437047   1.437047
 Mulliken charges and spin densities:
               1          2
     1  O    0.000000   1.000000
     2  O   -0.000000   1.000000
 Sum of Mulliken charges =  -0.00000   2.00000
 Mulliken charges and spin densities with hydrogens summed into heavy atoms:
               1          2
     1  O    0.000000   1.000000
     2  O   -0.000000   1.000000
 Electronic spatial extent (au):  <R**2>=             61.2965
 Charge=             -0.0000 electrons
 Dipole moment (field-independent basis, Debye):
    X=             -0.0000    Y=              0.0000    Z=             -0.0000  Tot=              0.0000
 Quadrupole moment (field-independent basis, Debye-Ang):
   XX=             -9.9651   YY=             -9.9651   ZZ=            -10.6674
   XY=             -0.0000   XZ=             -0.0000   YZ=              0.0000
 Traceless Quadrupole moment (field-independent basis, Debye-Ang):
   XX=              0.2341   YY=              0.2341   ZZ=             -0.4682
   XY=             -0.0000   XZ=             -0.0000   YZ=              0.0000
 Octapole moment (field-independent basis, Debye-Ang**2):
  XXX=              0.0000  YYY=              0.0000  ZZZ=            -18.5868  XYY=              0.0000
  XXY=              0.0000  XXZ=             -5.7878  XZZ=             -0.0000  YZZ=              0.0000
  YYZ=             -5.7878  XYZ=             -0.0000
 Hexadecapole moment (field-independent basis, Debye-Ang**3):
 XXXX=             -7.1936 YYYY=             -7.1936 ZZZZ=            -49.2929 XXXY=             -0.0000
 XXXZ=             -0.0000 YYYX=             -0.0000 YYYZ=              0.0000 ZZZX=             -0.0000
 ZZZY=              0.0000 XXYY=             -2.3979 XXZZ=             -9.4173 YYZZ=             -9.4173
 XXYZ=              0.0000 YYXZ=             -0.0000 ZZXY=             -0.0000
 N-N= 2.915576919669D+01 E-N=-4.140043278163D+02  KE= 1.500356814101D+02
                          Isotropic Fermi Contact Couplings
        Atom                 a.u.       MegaHertz       Gauss      10(-4) cm-1
     1  O(17)              0.08882     -26.92181      -9.60637      -8.98015
     2  O(17)              0.08882     -26.92181      -9.60637      -8.98015
 --------------------------------------------------------
       Center         ----  Spin Dipole Couplings  ----
                      3XX-RR        3YY-RR        3ZZ-RR
 --------------------------------------------------------
     1   Atom        1.279753      1.279753     -2.559505
     2   Atom        1.279753      1.279753     -2.559505
 --------------------------------------------------------
                        XY            XZ            YZ
 --------------------------------------------------------
     1   Atom        0.000000     -0.000000      0.000000
     2   Atom        0.000000     -0.000000      0.000000
 --------------------------------------------------------


 ---------------------------------------------------------------------------------
              Anisotropic Spin Dipole Couplings in Principal Axis System
 ---------------------------------------------------------------------------------

       Atom             a.u.   MegaHertz   Gauss  10(-4) cm-1        Axes

              Baa    -2.5595   185.204    66.085    61.777  0.0000 -0.0000  1.0000
     1 O(17)  Bbb     1.2798   -92.602   -33.043   -30.889  0.9983 -0.0582 -0.0000
              Bcc     1.2798   -92.602   -33.043   -30.889  0.0582  0.9983  0.0000
 
              Baa    -2.5595   185.204    66.085    61.777  0.0000 -0.0000  1.0000
     2 O(17)  Bbb     1.2798   -92.602   -33.043   -30.889 -0.0573  0.9984  0.0000
              Bcc     1.2798   -92.602   -33.043   -30.889  0.9984  0.0573 -0.0000
 

 ---------------------------------------------------------------------------------

 No NMR shielding tensors so no spin-rotation constants.
 Leave Link  601 at Mon Jul 10 16:31:53 2023, MaxMem=   134217728 cpu:               0.2 elap:               0.2
 (Enter /opt/g16/l9999.exe)
 Unable to Open any file for archive entry.
 1\1\GINC-CU38\SP\UCAM-B3LYP\def2TZVP\O2(3)\JXZOU\10-Jul-2023\0\\#p UCA
 M-B3LYP/def2TZVP nosymm int=nobasistransform\\title\\0,3\O,0,0.,0.,0.\
 O,0,0.,0.,1.1616\\Version=ES64L-G16RevC.02\HF=-150.3431022\S2=2.008643
 \S2-1=0.\S2A=2.000039\RMSD=3.965e-10\Dipole=0.,0.,0.\Quadrupole=0.1740
 303,0.1740303,-0.3480606,0.,0.,0.\PG=D*H [C*(O1.O1)]\\@
 The archive entry for this job was punched.


 SUCCESS IS COUNTED SWEETEST
 BY THOSE WHO NE'ER SUCCEED.
 TO COMPREHEND NECTAR
 REQUIRES SOREST NEED.
           EMILY DICKINSON
 Job cpu time:       0 days  0 hours  0 minutes  3.4 seconds.
 Elapsed time:       0 days  0 hours  0 minutes  3.5 seconds.
 File lengths (MBytes):  RWF=      6 Int=      0 D2E=      0 Chk=      1 Scr=      1
 Normal termination of Gaussian 16 at Mon Jul 10 16:31:53 2023.
