Generated by MOKIT
SP        RHF                                                         MYBAS
Number of atoms                            I                6
Charge                                     I               -2
Multiplicity                               I                1
Number of electrons                        I               20
Number of alpha electrons                  I               10
Number of beta electrons                   I               10
Number of basis functions                  I               86
Number of independent functions            I               86
Atomic numbers                             I   N=           6
           6           1           8           1           1           1
Nuclear charges                            R   N=           6
  6.00000000E+00  1.00000000E+00  8.00000000E+00  1.00000000E+00  1.00000000E+00
  1.00000000E+00
Current cartesian coordinates              R   N=          18
 -9.24314180E+00  6.23174984E+00  5.48020576E-04 -9.98177905E+00  5.77299993E+00
 -1.91166584E+00 -6.60094563E+00  6.20640861E+00 -6.19830169E-03 -9.98177905E+00
  4.88256098E+00  1.43120298E+00 -9.90212710E+00  8.15492412E+00  5.12833876E-01
 -6.10304059E+00  4.45939461E+00 -4.71543360E-01
Int Atom Types                             I   N=           6
           0           0           0           0           0           0
Real atomic weights                        R   N=           6
  1.20000000E+01  1.00782504E+00  1.59949146E+01  1.00782504E+00  1.00782504E+00
  1.00782504E+00
Number of contracted shells                I               38
Number of primitive shells                 I               64
Highest angular momentum                   I                3
Largest degree of contraction              I                6
Shell types                                I   N=          38
           0           0           0           0           0           1
           1           1          -2          -2          -3           0
           0           0           1           0           0           0
           0           0           1           1           1          -2
          -2          -3           0           0           0           1
           0           0           0           1           0           0
           0           1
Number of primitives per shell             I   N=          38
           6           2           1           1           1           4
           1           1           1           1           1           3
           1           1           1           6           2           1
           1           1           4           1           1           1
           1           1           3           1           1           1
           3           1           1           1           3           1
           1           1
Shell to atom map                          I   N=          38
           1           1           1           1           1           1
           1           1           1           1           1           2
           2           2           2           3           3           3
           3           3           3           3           3           3
           3           3           4           4           4           4
           5           5           5           5           6           6
           6           6
Primitive exponents                        R   N=          64
  1.35753497E+04  2.03523337E+03  4.63225624E+02  1.31200196E+02  4.28530159E+01
  1.55841858E+01  6.20671385E+00  2.57648965E+00  5.76963394E-01  2.29728314E-01
  9.51644400E-02  3.46972322E+01  7.95826228E+00  2.37808269E+00  8.14332082E-01
  2.88875473E-01  1.00568237E-01  1.09700000E+00  3.18000000E-01  7.61000000E-01
  3.40613410E+01  5.12357460E+00  1.16466260E+00  3.27230410E-01  1.03072410E-01
  8.00000000E-01  2.70323826E+04  4.05238714E+03  9.22327227E+02  2.61240710E+02
  8.53546414E+01  3.10350352E+01  1.22608607E+01  4.99870760E+00  1.17031082E+00
  4.64747410E-01  1.85045364E-01  6.32749548E+01  1.46270494E+01  4.45012235E+00
  1.52757996E+00  5.29351179E-01  1.74784213E-01  2.31400000E+00  6.45000000E-01
  1.42800000E+00  3.40613410E+01  5.12357460E+00  1.16466260E+00  3.27230410E-01
  1.03072410E-01  8.00000000E-01  3.40613410E+01  5.12357460E+00  1.16466260E+00
  3.27230410E-01  1.03072410E-01  8.00000000E-01  3.40613410E+01  5.12357460E+00
  1.16466260E+00  3.27230410E-01  1.03072410E-01  8.00000000E-01
Contraction coefficients                   R   N=          64
  6.06454917E-04  4.69790882E-03  2.43324776E-02  9.73999683E-02  3.01955843E-01
  6.62336092E-01  6.55953085E-01  3.75856333E-01  1.00000000E+00  1.00000000E+00
  1.00000000E+00  1.13272200E-02  7.61696592E-02  3.01922522E-01  7.27850273E-01
  1.00000000E+00  1.00000000E+00  1.00000000E+00  1.00000000E+00  1.00000000E+00
  2.54393072E-02  1.90085949E-01  8.52441130E-01  1.00000000E+00  1.00000000E+00
  1.00000000E+00  5.72273287E-04  4.43532330E-03  2.30201076E-02  9.28224907E-02
  2.93785000E-01  6.74016045E-01  6.38399370E-01  3.95345871E-01  1.00000000E+00
  1.00000000E+00  1.00000000E+00  1.20183321E-02  8.30054217E-02  3.19917439E-01
  7.07155429E-01  1.00000000E+00  1.00000000E+00  1.00000000E+00  1.00000000E+00
  1.00000000E+00  2.54393072E-02  1.90085949E-01  8.52441130E-01  1.00000000E+00
  1.00000000E+00  1.00000000E+00  2.54393072E-02  1.90085949E-01  8.52441130E-01
  1.00000000E+00  1.00000000E+00  1.00000000E+00  2.54393072E-02  1.90085949E-01
  8.52441130E-01  1.00000000E+00  1.00000000E+00  1.00000000E+00
Coordinates of each shell                  R   N=         114
 -9.24314180E+00  6.23174984E+00  5.48020576E-04 -9.24314180E+00  6.23174984E+00
  5.48020576E-04 -9.24314180E+00  6.23174984E+00  5.48020576E-04 -9.24314180E+00
  6.23174984E+00  5.48020576E-04 -9.24314180E+00  6.23174984E+00  5.48020576E-04
 -9.24314180E+00  6.23174984E+00  5.48020576E-04 -9.24314180E+00  6.23174984E+00
  5.48020576E-04 -9.24314180E+00  6.23174984E+00  5.48020576E-04 -9.24314180E+00
  6.23174984E+00  5.48020576E-04 -9.24314180E+00  6.23174984E+00  5.48020576E-04
 -9.24314180E+00  6.23174984E+00  5.48020576E-04 -9.98177905E+00  5.77299993E+00
 -1.91166584E+00 -9.98177905E+00  5.77299993E+00 -1.91166584E+00 -9.98177905E+00
  5.77299993E+00 -1.91166584E+00 -9.98177905E+00  5.77299993E+00 -1.91166584E+00
 -6.60094563E+00  6.20640861E+00 -6.19830169E-03 -6.60094563E+00  6.20640861E+00
 -6.19830169E-03 -6.60094563E+00  6.20640861E+00 -6.19830169E-03 -6.60094563E+00
  6.20640861E+00 -6.19830169E-03 -6.60094563E+00  6.20640861E+00 -6.19830169E-03
 -6.60094563E+00  6.20640861E+00 -6.19830169E-03 -6.60094563E+00  6.20640861E+00
 -6.19830169E-03 -6.60094563E+00  6.20640861E+00 -6.19830169E-03 -6.60094563E+00
  6.20640861E+00 -6.19830169E-03 -6.60094563E+00  6.20640861E+00 -6.19830169E-03
 -6.60094563E+00  6.20640861E+00 -6.19830169E-03 -9.98177905E+00  4.88256098E+00
  1.43120298E+00 -9.98177905E+00  4.88256098E+00  1.43120298E+00 -9.98177905E+00
  4.88256098E+00  1.43120298E+00 -9.98177905E+00  4.88256098E+00  1.43120298E+00
 -9.90212710E+00  8.15492412E+00  5.12833876E-01 -9.90212710E+00  8.15492412E+00
  5.12833876E-01 -9.90212710E+00  8.15492412E+00  5.12833876E-01 -9.90212710E+00
  8.15492412E+00  5.12833876E-01 -6.10304059E+00  4.45939461E+00 -4.71543360E-01
 -6.10304059E+00  4.45939461E+00 -4.71543360E-01 -6.10304059E+00  4.45939461E+00
 -4.71543360E-01 -6.10304059E+00  4.45939461E+00 -4.71543360E-01
Num ILSW                                   I              100
ILSW                                       I   N=         100
           0           0           0           0           2           0
           0           0           0           0           0          -1
           5           0           0           0           0           0
           0           0           0           0           0           0
           1           1           0           0           0           0
           0           0      100000           0          -1           0
           0           0           0           0           0           0
           0           0           0           1           0           0
           0 -2000000000           1           0           0           0
           0           0           4          52           0           0
           0           0           0           0           0           0
           0           0           0           6           0           1
           0           0           0           0           0           0
           0           0           0           0           0           0
           0           0           0           0           0           0
           0           0           0           0           0           0
           0           0           0           0
Virial Ratio                               R      0.200000000000000E+01
Total Energy                               R      0.000000000000000E+00
Alpha Orbital Energies                     R   N=          86
 -1.87660345E+01 -9.82125410E+00 -6.16740300E-01 -2.63279800E-01 -8.90101000E-02
 -2.77513000E-02 -1.98624000E-02  7.56698000E-02  1.38757400E-01  3.47872500E-01
  4.18493400E-01  4.67013000E-01  4.75128200E-01  5.10097800E-01  5.91789000E-01
  6.05971300E-01  7.01838300E-01  7.49949600E-01  7.92131500E-01  8.37398000E-01
  8.42357500E-01  8.68796400E-01  9.07038000E-01  9.20723900E-01  9.70588000E-01
  1.11852930E+00  1.13937020E+00  1.17708520E+00  1.31091970E+00  1.34149840E+00
  1.44157750E+00  1.71344930E+00  1.83423380E+00  1.88299660E+00  1.93776840E+00
  1.94272610E+00  1.96467020E+00  1.99309610E+00  2.03041900E+00  2.11811270E+00
  2.29137670E+00  2.35849850E+00  2.37768020E+00  2.42651530E+00  2.45703140E+00
  2.59017190E+00  2.68092650E+00  2.68698440E+00  2.72162960E+00  2.73690150E+00
  2.82395790E+00  2.90736730E+00  2.96543350E+00  3.03305340E+00  3.16109230E+00
  3.18701310E+00  3.24096340E+00  3.32007280E+00  3.44374530E+00  3.51486330E+00
  3.62735120E+00  3.74252020E+00  3.76522430E+00  3.80435360E+00  3.98286620E+00
  3.98513910E+00  3.99940920E+00  4.33086110E+00  4.52258340E+00  4.58293360E+00
  4.77524110E+00  4.88696900E+00  5.69937800E+00  5.78939710E+00  5.87178630E+00
  6.14714380E+00  6.19069470E+00  6.35064820E+00  6.63187330E+00  6.88218160E+00
  7.09709210E+00  7.16971830E+00  7.37722090E+00  7.54073210E+00  2.27881010E+01
  4.41234623E+01
Alpha MO coefficients                      R   N=        7396
  2.80000000E-05 -1.50200000E-04 -1.33910000E-03  6.04920000E-03 -7.56490000E-03
  7.93000000E-05 -3.10000000E-05 -8.40000000E-06  4.29140000E-03  1.27800000E-04
  3.50000000E-05 -6.65900000E-04 -3.14700000E-04 -8.50000000E-05 -2.67500000E-04
 -8.00000000E-06  3.00000000E-06  4.52600000E-04 -2.97000000E-05 -1.23800000E-03
 -1.19000000E-05  4.33000000E-05  1.99180000E-03 -4.51000000E-05  1.55000000E-05
 -3.97900000E-04  2.20000000E-05 -8.90000000E-06  1.41000000E-05  4.74400000E-04
 -5.81000000E-05  3.89000000E-05  2.23300000E-04  1.46540000E-03 -1.35500000E-04
 -3.80000000E-06 -6.86000000E-05  4.35387700E-01  6.39692400E-01  3.40053000E-02
 -2.37584000E-02  8.17050000E-03 -1.50900000E-03 -9.42700000E-04 -2.51000000E-04
  3.81320000E-03  1.55710000E-03  4.14500000E-04 -4.94400000E-04 -3.31800000E-04
 -8.81000000E-05 -2.04300000E-04 -2.06000000E-05  6.97000000E-05  1.10300000E-04
 -7.73000000E-05  1.00810000E-03  9.15000000E-05 -3.14800000E-04 -6.47800000E-04
  3.42900000E-04 -6.43000000E-05 -1.17400000E-04 -7.63000000E-05 -7.18000000E-05
 -4.30000000E-05  2.73800000E-04 -8.71000000E-05  3.87000000E-05  2.22500000E-04
  1.46710000E-03 -1.35700000E-04 -3.76000000E-05  5.80000000E-05  4.70000000E-06
  1.01100000E-04  1.79740000E-03 -2.00300000E-04  9.92000000E-05  2.66000000E-05
  7.11100000E-04  1.20070000E-03 -1.04740000E-03 -2.17100000E-04  8.42400000E-04
  2.24400000E-04 -4.67131400E-01 -6.08852600E-01 -3.23718000E-02  1.18889000E-02
 -1.44344000E-02 -1.62000000E-03 -9.77000000E-05 -2.57000000E-05  1.50200000E-04
 -4.10400000E-04 -1.12900000E-04  7.04200000E-04  1.43200000E-04  3.67000000E-05
  2.49600000E-04  1.39000000E-05  2.10000000E-06 -4.40100000E-04  5.42000000E-05
  7.72000000E-05 -2.61000000E-05 -2.21000000E-05 -4.76000000E-05 -1.07600000E-04
  6.75900000E-04  1.04050000E-03  8.31900000E-04  5.48700000E-04 -1.39000000E-05
 -1.30570000E-03  2.90500000E-04  5.09700000E-04  1.63600000E-03  3.03370000E-03
  6.12600000E-04  3.86000000E-04  1.67820000E-03  1.84000000E-05  1.53300000E-04
 -1.48730000E-03  2.40140000E-03  8.72500000E-04  6.65400000E-04 -3.85000000E-05
 -1.00000000E-05 -2.99540000E-03  2.14000000E-04  5.60000000E-05  1.20000000E-06
  8.87600000E-04  2.37400000E-04  7.45000000E-05 -2.40000000E-06  3.22000000E-05
 -2.41200000E-04 -8.80000000E-06 -8.80300000E-04  1.38000000E-05 -1.57800000E-04
  2.07440000E-03  5.02000000E-05 -3.91000000E-05  4.77200000E-04 -4.82000000E-05
 -3.09000000E-05 -2.21000000E-05 -5.53000000E-04 -1.42000000E-05  5.10200000E-04
  1.64370000E-03  3.03330000E-03  6.12700000E-04  1.17080000E-03 -1.26510000E-03
  5.42100000E-04  1.91700000E-03  2.64850000E-03  5.88500000E-04 -1.79850000E-03
 -4.79000000E-04  2.86800000E-04  7.25900000E-04  9.33300000E-04 -4.62000000E-05
  1.99100000E-04  5.30000000E-05  3.73853000E-02  7.89301000E-02 -1.24738300E-01
 -1.01109600E-01 -1.03438000E-02 -8.15711000E-02  3.60200000E-03  9.56500000E-04
 -4.17247000E-02  4.62840000E-03  1.23500000E-03 -5.27250000E-03 -6.21800000E-04
 -1.66000000E-04  5.48460000E-03  2.29400000E-04 -6.68000000E-05 -9.26380000E-03
  8.67500000E-04  2.82240000E-03  3.70200000E-04  3.71400000E-04 -6.18880000E-03
  1.37410000E-03  7.95800000E-04  2.69770000E-03  9.54600000E-04  8.12600000E-04
 -1.62700000E-04 -3.01850000E-03  8.49900000E-04 -1.38605000E-02 -1.12006000E-02
 -2.46640000E-03 -2.38590000E-03 -3.15400000E-04 -1.84580000E-03  9.35278000E-02
  2.20432000E-01 -3.12207600E-01 -4.41026900E-01 -1.39934800E-01  5.54837000E-02
  4.56535000E-02  1.21610000E-02  5.55444000E-02  4.14196000E-02  1.10297000E-02
 -3.14300000E-04 -7.12500000E-04 -1.90500000E-04  3.34770000E-03  2.28300000E-04
 -1.40490000E-03 -8.99700000E-04  8.55300000E-04  1.11359000E-02  3.14900000E-04
 -3.72250000E-03 -6.30590000E-03  1.17730000E-03 -9.62300000E-04 -1.64320000E-03
 -1.14810000E-03 -1.04140000E-03 -3.42400000E-04  3.09790000E-03 -1.19640000E-03
 -1.38616000E-02 -1.11990000E-02 -2.47170000E-03 -2.38760000E-03 -1.19150000E-03
  1.44430000E-03 -1.38808000E-02 -1.37916000E-02 -9.89600000E-04 -2.55120000E-03
  2.19360000E-03  5.84700000E-04 -7.55891000E-02 -5.55377000E-02 -9.24190000E-03
  5.28310000E-03 -1.38325000E-02 -3.68430000E-03  8.48118000E-02  1.81625200E-01
 -2.86630800E-01 -3.31703100E-01 -2.38904000E-02  4.20200000E-02 -2.15365000E-02
 -5.73990000E-03  2.64499000E-02 -1.66171000E-02 -4.40690000E-03  9.66980000E-03
 -9.25800000E-04 -2.64000000E-04 -1.91740000E-03 -3.82600000E-04 -1.43500000E-04
  3.81880000E-03 -1.43100000E-03  9.85600000E-04 -2.78800000E-04 -3.77300000E-04
 -4.05100000E-04 -1.02260000E-03  2.18860000E-03  3.44630000E-03  2.72980000E-03
  1.49510000E-03 -2.40500000E-04 -3.75880000E-03  1.05600000E-04 -7.57701000E-02
 -8.22498000E-02 -3.47649000E-02 -2.42370000E-03 -3.78020000E-03 -1.13318000E-02
 -3.08154000E-02 -7.33441000E-02  1.08436300E-01  1.61130000E-01  9.44932000E-02
  1.33554300E-01 -7.39561000E-02 -1.96988000E-02  1.03577000E-01 -6.35573000E-02
 -1.69287000E-02  4.17598000E-02 -1.61960000E-02 -4.31050000E-03  3.50100000E-04
 -2.63400000E-04  1.16290000E-03 -4.66280000E-03 -9.89300000E-04  1.24500000E-04
 -1.07130000E-03  3.47330000E-03 -1.23275000E-02 -4.00850000E-03  9.17300000E-04
 -1.53550000E-03  1.14020000E-03  6.70300000E-04  8.08200000E-04 -3.21600000E-04
  1.66200000E-04 -7.57708000E-02 -8.22811000E-02 -3.47283000E-02 -2.42540000E-03
 -8.92170000E-03  7.95370000E-03 -8.88523000E-02 -9.88150000E-02 -4.83510000E-02
 -3.29620000E-03  1.25247000E-02  3.33450000E-03  6.93472000E-02  6.26299000E-02
  2.65297000E-02  2.09980000E-03  1.01799000E-02  2.71140000E-03  1.40960000E-02
  3.00612000E-02 -3.77512000E-02 -9.80991000E-02  6.30836000E-02  1.64970000E-01
  1.34008400E-01  3.56905000E-02  1.12711500E-01  1.05125500E-01  2.79986000E-02
  5.68379000E-02  2.53103000E-02  6.74980000E-03 -9.04550000E-03  1.40080000E-03
  1.90250000E-03  9.02960000E-03  5.26080000E-03 -6.62630000E-03  3.24140000E-03
  2.14770000E-03  4.00200000E-03  1.21750000E-02 -1.58200000E-04 -5.15300000E-04
 -3.70900000E-04  1.08950000E-03 -7.34000000E-05  8.71500000E-04  3.62390000E-03
 -7.12851000E-02 -8.44843000E-02 -6.76228000E-02  5.93600000E-04  1.46560000E-03
 -1.00684000E-02 -1.61797000E-02 -3.88429000E-02  5.91545000E-02  8.63230000E-02
  7.04574000E-02 -1.55857300E-01  2.63951900E-01  7.03011000E-02 -1.36358500E-01
  2.18350000E-01  5.81625000E-02 -4.03489000E-02  9.66288000E-02  2.57329000E-02
  4.13700000E-04 -1.99600000E-04 -2.12980000E-03  6.71360000E-03 -7.49300000E-04
 -7.61000000E-05 -1.22020000E-03 -5.64590000E-03  1.98164000E-02 -4.58390000E-03
 -1.83970000E-03  2.10390000E-03 -2.36270000E-03 -8.04900000E-04 -9.35200000E-04
 -5.24000000E-05  1.29120000E-03 -7.12875000E-02 -8.44811000E-02 -6.76519000E-02
  5.95100000E-04 -3.73780000E-03  9.46180000E-03  1.69838000E-02  1.76068000E-02
  1.64043000E-02  7.39340000E-03 -4.04000000E-05 -1.20000000E-05 -1.21716000E-01
 -1.44338900E-01 -9.83858000E-02  2.20460000E-03 -1.32778000E-02 -3.53740000E-03
  1.40000000E-06  2.90000000E-06 -1.00000000E-06 -3.41000000E-05  3.38000000E-05
 -1.63000000E-05 -7.43695000E-02  2.79259800E-01 -8.00000000E-07 -5.80365000E-02
  2.17934700E-01 -2.88000000E-05 -2.39967000E-02  9.01976000E-02 -3.82810000E-03
  1.56180000E-03 -7.70850000E-03 -2.21010000E-03 -4.16200000E-04 -3.62990000E-03
 -2.59500000E-04 -7.29600000E-03 -2.10040000E-03  6.59000000E-05 -1.39760000E-03
  1.00000000E-07  2.78300000E-04  1.57380000E-03 -5.00000000E-06 -1.20000000E-06
 -5.06700000E-04 -1.16605500E-01 -1.34846900E-01 -1.15264500E-01 -6.86270000E-03
 -7.38550000E-03 -9.32680000E-03 -1.50000000E-06 -3.70000000E-06  1.01000000E-05
 -1.31000000E-05  5.41000000E-05  2.68000000E-05 -5.47871000E-02  2.05739500E-01
  2.33000000E-05 -4.67180000E-02  1.75479300E-01  1.06000000E-05 -2.75774000E-02
  1.03500200E-01 -5.35200000E-04 -4.02760000E-03 -1.07780000E-03 -3.09200000E-04
  1.07290000E-03 -2.85020000E-03 -1.46252000E-02 -5.74350000E-03 -1.64790000E-03
  3.89200000E-03 -3.14870000E-03 -1.25600000E-04  1.35740000E-03  2.16780000E-03
 -2.78400000E-04 -9.75000000E-05 -6.51900000E-04  1.16603800E-01  1.34871900E-01
  1.15246300E-01  6.86240000E-03  1.10516000E-02 -4.41920000E-03  1.12000000E-05
  3.70000000E-06 -4.70000000E-06 -1.00000000E-07 -2.51420000E-03  9.43350000E-03
 -3.10000000E-06 -4.40000000E-06 -8.90000000E-06  1.00000000E-07 -2.57600000E-03
  9.67430000E-03 -3.38750000E-03 -7.69740000E-03  2.34917000E-02 -1.58697000E-02
  1.74793000E-02  1.91143400E-01 -1.94830700E-01 -5.18638000E-02  1.27355800E-01
 -1.43401900E-01 -3.81715000E-02  3.50601000E-02 -7.28434000E-02 -1.93846000E-02
 -1.40080000E-03  1.55800000E-04 -3.54760000E-03  1.47893000E-02  5.82700000E-04
  1.63170000E-03 -4.83200000E-04 -2.08460000E-03  4.44680000E-03 -1.78880000E-03
  1.60700000E-04 -1.13360000E-03  2.32000000E-04 -1.01700000E-04  1.70500000E-04
  9.76500000E-04 -6.33300000E-04  1.20881000E-02  1.48017000E-02  3.65510000E-03
  6.44750000E-03 -5.37450000E-03  7.64300000E-04  1.50792000E-02  3.62093000E-02
 -5.83490000E-02 -7.00472000E-02 -8.01703000E-02 -2.83969500E-01 -8.09765000E-02
 -2.15583000E-02 -2.40058400E-01 -6.56362000E-02 -1.74728000E-02 -1.60999800E-01
 -4.47394000E-02 -1.19150000E-02 -2.17890000E-03  1.05670000E-03 -1.66000000E-04
  4.35350000E-03  3.96870000E-03 -7.90190000E-03  5.13670000E-03 -4.43500000E-04
  1.52252000E-02  1.92791000E-02  2.80800000E-04  3.03410000E-03  4.01200000E-04
 -1.49500000E-04 -9.78000000E-04 -1.12870000E-03 -1.02330000E-03  1.21137000E-02
  1.48272000E-02  3.66840000E-03  6.44900000E-03 -4.28110000E-03 -3.33650000E-03
 -1.32830200E-01 -1.71664800E-01 -1.47654300E-01 -1.09680000E-03  1.40248000E-02
  3.73450000E-03 -1.93109000E-02 -1.33197000E-02 -4.13849000E-02 -1.10884000E-02
 -3.94050000E-03 -1.04970000E-03  2.27300000E-03  5.03420000E-03 -1.31307000E-02
  3.31460000E-03  1.35206000E-01 -8.97112000E-02 -1.96385200E-01 -5.23186000E-02
 -5.16397000E-02 -1.64258300E-01 -4.37524000E-02  1.05360000E-03 -1.77744000E-02
 -4.74640000E-03  1.08655000E-02  3.42960000E-03 -5.77020000E-03  1.30410000E-03
  1.28756000E-02  3.48060000E-03  5.72740000E-03 -5.47550000E-03  1.30858000E-02
  2.14823000E-02 -6.72700000E-04 -5.40800000E-04 -1.04550000E-03  9.78400000E-04
  2.35900000E-04  2.16000000E-05  4.32370000E-03  7.57387000E-02  9.59490000E-02
  1.13459600E-01 -4.96900000E-04 -4.06770000E-03  8.12350000E-03 -2.15075000E-02
 -5.19342000E-02  8.52986000E-02  1.00007700E-01  1.23747500E-01  1.51925800E-01
  2.64705200E-01  7.05064000E-02  1.26383400E-01  2.15282200E-01  5.73436000E-02
  1.45411000E-01  1.66880200E-01  4.44485000E-02  2.81660000E-03  1.82600000E-04
 -1.88230000E-03  1.68900000E-03  6.86700000E-04  1.07453000E-02 -5.98600000E-04
 -6.08950000E-03  2.62300000E-03 -2.24960000E-03 -1.18020000E-03 -1.48350000E-03
 -1.39070000E-03 -1.38640000E-03  1.47300000E-04  1.49290000E-03 -1.80600000E-03
  7.57312000E-02  9.59672000E-02  1.13436800E-01 -4.97700000E-04  5.12900000E-04
 -9.07130000E-03 -1.14675900E-01 -1.60230400E-01 -2.55854800E-01 -5.01300000E-03
  5.96690000E-03  1.58830000E-03 -8.78089000E-02 -1.14276100E-01 -8.76190000E-02
  6.79310000E-03 -5.65180000E-03 -1.50540000E-03  2.00000000E-07 -1.50000000E-06
  2.54000000E-05 -9.83000000E-05  1.26800000E-04 -9.30000000E-06 -3.58736000E-02
  1.34701300E-01  5.40000000E-06 -3.30163000E-02  1.23915900E-01 -1.17800000E-04
  3.96300000E-04 -1.44720000E-03 -3.98510000E-03 -1.82357000E-02 -8.02370000E-03
 -2.29800000E-03  4.85700000E-03 -9.58800000E-04 -3.18270000E-02 -1.94960000E-03
 -5.78500000E-04  8.48100000E-03  4.58930000E-03  2.36900000E-04 -6.52600000E-04
 -5.63720000E-03  5.13900000E-04  1.78800000E-04  1.83080000E-03 -9.11802000E-02
 -1.25587800E-01 -2.12670700E-01  3.06700000E-04 -3.79970000E-03 -4.72810000E-03
 -6.00000000E-07 -1.10000000E-06  3.60000000E-06 -1.50000000E-05  1.15600000E-04
  8.90000000E-06  1.07314400E-01 -4.02861500E-01  3.10000000E-06  8.80760000E-02
 -3.30688400E-01 -3.65000000E-05  8.53624000E-02 -3.20434300E-01  9.02400000E-04
  1.48310000E-03  1.81670000E-03  5.20700000E-04 -3.95700000E-04  5.12460000E-03
  3.91650000E-03  1.03231000E-02  2.96350000E-03 -1.04410000E-03  2.97900000E-03
  6.26800000E-04 -2.24990000E-03 -2.46200000E-04  1.38570000E-03  4.85800000E-04
 -2.45000000E-05  9.11804000E-02  1.25606500E-01  2.12535500E-01 -3.05800000E-04
  5.65290000E-03 -2.21410000E-03  4.30000000E-06  1.07000000E-05 -5.89000000E-05
 -2.00000000E-07 -1.23070000E-03  4.60570000E-03  3.00000000E-07 -1.80000000E-06
  6.60000000E-06  8.00000000E-07  4.75310000E-03 -1.78499000E-02 -2.83350000E-02
 -6.48627000E-02  2.50450400E-01 -5.90850700E-01  4.52217270E+00 -1.13338100E-01
 -1.26162000E-02 -3.36170000E-03  3.42507000E-02  5.54148000E-02  1.47643000E-02
 -5.29565400E-01 -1.29718500E-01 -3.45974000E-02 -3.49100000E-03 -1.37480000E-03
  4.97300000E-04  4.30620000E-03 -5.17220000E-03 -4.50861000E-02 -1.25400000E-04
  9.12930000E-03  4.62940000E-02 -4.33300000E-04  1.32020000E-02  1.05466000E-02
  1.63694000E-02  9.84600000E-03 -1.97730000E-03 -7.98710000E-03  3.05610000E-03
 -1.14572000E-02  2.20166700E-01 -1.84868990E+00  1.31711000E-02  1.27956000E-02
  4.49487000E-02 -1.58276000E-02 -3.96040000E-02  8.33850000E-02  5.49290000E-03
  2.40053100E-01  4.78905000E-02 -9.03665000E-02 -2.40549000E-02  1.37257000E-02
 -1.46360000E-02 -3.89790000E-03  2.28905100E-01 -3.26837400E-01 -8.70418000E-02
  1.80000000E-05 -2.61000000E-05 -1.10000000E-04  3.53800000E-04 -9.71000000E-05
  1.44200000E-04  3.25850000E-03 -2.90930000E-03  9.89340000E-03  1.22391000E-02
  1.09900000E-04  6.30800000E-04  2.04400000E-04 -3.86300000E-04 -7.61000000E-05
 -5.99000000E-04 -1.39490000E-03 -1.14560000E-02  2.20113500E-01 -1.84852970E+00
  1.31733000E-02  3.34594000E-02 -3.26281000E-02 -5.20980000E-03  1.65818700E-01
 -1.58468670E+00  2.42060000E-03 -3.42728000E-02 -9.13110000E-03 -2.89838000E-02
  3.52730000E-02 -1.19392890E+00 -1.75230000E-03  3.08447000E-02  8.21380000E-03
 -2.90962000E-02 -6.36070000E-02  1.53265400E-01 -9.49929000E-02  3.23476970E+00
 -1.72853000E-02  8.85378000E-02  2.36147000E-02  2.10975300E-01 -4.18896000E-02
 -1.11453000E-02 -1.83662900E-01  5.41096400E-01  1.44324600E-01  3.95840000E-03
  1.65410000E-03 -1.47900000E-03 -1.69010000E-03  6.20370000E-03 -1.38039000E-02
  7.58580000E-03 -2.44589000E-02  1.09211800E-01  2.84575000E-02  1.03053000E-02
 -3.52280000E-03  1.24486000E-02  9.97040000E-03  4.19280000E-03 -7.39680000E-03
  9.30280000E-03 -1.01571000E-02  8.52440000E-02 -9.34142500E-01  9.56730000E-03
  3.74170000E-03  1.63779000E-02  2.17304000E-02  5.62848000E-02 -1.42669800E-01
  1.27457200E-01 -1.37090680E+00  3.10400000E-03  9.44866000E-02  2.51561000E-02
  7.79719000E-02  2.73526000E-02  7.29120000E-03  1.24419700E-01  2.84930600E-01
  7.58597000E-02 -1.33440000E-03 -4.05000000E-04 -2.28200000E-04  3.10650000E-03
 -1.52090000E-03  3.57500000E-03 -4.45070000E-03  5.43570000E-03 -2.51509000E-02
 -1.67023000E-02 -1.30900000E-04 -6.65200000E-04 -2.35800000E-04  4.07700000E-04
  1.13400000E-04  5.37300000E-04  1.50220000E-03 -1.01590000E-02  8.53499000E-02
 -9.34728100E-01  9.56900000E-03  1.14009000E-02 -1.23514000E-02 -1.80032000E-02
  4.12498300E-01 -2.39460400E+00  2.55101000E-02 -5.72972000E-02 -1.52590000E-02
  4.29301000E-02 -2.45820000E-02  1.27185980E+00  1.24176000E-02 -3.24680000E-02
 -8.64670000E-03 -1.06633000E-02 -2.36769000E-02  4.31825000E-02  3.30498000E-02
  1.49189710E+00  4.68490000E-03 -2.12751100E-01 -5.63321000E-02  1.69359200E-01
  4.59990000E-02  1.21753000E-02  5.08433800E-01 -1.51234500E+00 -4.00729800E-01
 -5.15760000E-03 -1.66300000E-03  7.13390000E-03 -1.58778000E-02 -6.28360000E-03
 -1.35810600E-01 -1.91238000E-02  5.73858000E-02  3.58382000E-02 -7.23805000E-02
  5.53240000E-03  1.26234000E-02  7.23090000E-03  1.66650000E-03 -1.07545000E-02
  1.42106000E-02 -6.21550000E-03 -1.10063000E-02  3.23432900E-01 -1.76544120E+00
  2.15736000E-02  2.33200000E-03  4.15552000E-02  1.14994000E-02  2.89661000E-02
 -6.10714000E-02  2.45512000E-02 -8.96650600E-01  3.76964000E-02  5.96567000E-02
  1.58161000E-02  7.02057000E-02  2.41212000E-02  6.40620000E-03  3.64100000E-01
  1.81958500E-01  4.81726000E-02 -2.90870000E-03  3.81000000E-04  8.25600000E-04
  2.17560000E-03  1.44190000E-03  1.60089000E-02  2.78050000E-03 -9.97500000E-04
 -2.42605000E-02  1.04869000E-02  1.85600000E-04 -1.41890000E-03  2.99200000E-04
 -3.37200000E-04  2.47000000E-05  1.76540000E-03 -1.40110000E-03 -1.10611000E-02
  3.24920500E-01 -1.77223710E+00  2.16405000E-02  2.28215000E-02 -3.50150000E-02
  2.48951000E-02 -4.26455400E-01  2.37591220E+00 -1.14839000E-02  5.11937000E-02
  1.36486000E-02  2.93570000E-03 -7.95980000E-03 -3.46540000E-03  5.80980000E-03
 -1.38718000E-02 -3.70660000E-03  1.27000000E-05  3.20000000E-05 -1.19100000E-04
  3.01800000E-04 -2.58060000E-03  2.69000000E-05 -6.14292000E-02  2.31762900E-01
 -2.20500000E-04  1.57247000E-02 -5.93647000E-02  3.30900000E-04 -4.31711600E-01
  1.62907900E+00  6.30540000E-03  7.01060000E-03  1.26537000E-02  3.63820000E-03
 -1.86030000E-03  5.56147000E-02  1.03702300E-01  1.11557300E-01  3.20227000E-02
 -2.74981000E-02 -6.27720000E-03 -9.92100000E-03  1.97580000E-03  5.64900000E-03
 -2.18282000E-02 -7.69240000E-03 -1.76380000E-03  2.17508000E-02 -5.06851900E-01
  2.61009510E+00 -2.23178000E-02 -1.77612000E-02 -6.05785000E-02 -1.40000000E-05
 -3.28000000E-05  4.99000000E-05  6.98000000E-05  6.78100000E-04  1.28000000E-05
  1.37694000E-02 -5.23022000E-02 -5.89000000E-05  4.12950000E-03 -1.57290000E-02
 -1.35300000E-04  6.22269000E-02 -2.35227200E-01  1.23090000E-03 -2.48880000E-03
  2.47150000E-03  7.07000000E-04  6.60600000E-04 -5.63100000E-04 -7.71610000E-03
 -1.11730000E-03 -2.97100000E-04  2.04660000E-03 -3.98700000E-04  2.41000000E-04
 -1.97600000E-04  9.63900000E-04  5.27900000E-04  1.83300000E-04 -3.27300000E-04
 -2.17009000E-02  5.05914900E-01 -2.60420680E+00  2.22603000E-02  4.54732000E-02
 -4.36052000E-02 -2.74000000E-05  6.48400000E-04 -2.92890000E-03  1.72000000E-05
 -2.74540000E-03  1.00144000E-02 -1.38000000E-05  4.97000000E-05 -7.06200000E-04
 -1.28000000E-05  2.14460000E-03 -7.93010000E-03 -6.45210000E-03 -1.35192000E-02
 -3.13271000E-02  2.73960700E-01  1.35141430E+00  6.52427000E-02  2.73782000E-02
  7.21030000E-03  2.70484900E-01 -4.50915000E-02 -1.20072000E-02  2.06965250E+00
  7.26060800E-01  1.92433200E-01  2.40983000E-02  1.68100000E-04 -5.37590000E-03
 -2.30168000E-02  6.45200000E-04 -8.86281000E-02 -9.09000000E-05  3.87650000E-03
  1.39824900E-01 -2.83000000E-04  2.36680000E-03 -8.31260000E-03  3.05830000E-03
  9.00100000E-04  6.96500000E-04  8.77340000E-03 -2.07030000E-03  3.05678000E-02
  6.27462000E-02  6.89396000E-01  1.43655000E-02  6.46540000E-03 -6.60900000E-03
  1.68347000E-02  4.20204000E-02 -7.68182000E-02  1.98626000E-02 -1.61602140E+00
  1.17809700E-01 -1.07169200E-01 -2.85303000E-02  1.41862400E-01 -1.29402000E-02
 -3.41860000E-03  9.32815500E-01 -3.95189300E-01 -1.05143400E-01 -2.67310000E-03
 -1.36300000E-04  3.67400000E-04  3.34370000E-03 -5.16000000E-04  3.99930000E-02
  1.94560000E-03 -9.91100000E-03 -3.46894000E-02  7.29770000E-03 -6.80100000E-04
 -3.16940000E-03 -7.50300000E-04 -1.15920000E-03  2.84000000E-04  3.28270000E-03
 -2.12860000E-03  3.05952000E-02  6.25652000E-02  6.91689200E-01  1.43481000E-02
  2.29970000E-03  8.97120000E-03  3.48630000E-03  5.52827000E-02 -7.51747100E-01
  1.68911000E-02 -5.44980000E-03 -1.45840000E-03 -8.68730000E-03  1.69134100E-01
 -1.40296530E+00 -1.52841000E-02  2.82556000E-02  7.52970000E-03  1.40000000E-06