18
Energy = -385.7255380740
C     0.0000000   -0.7212565    0.0000000 
C     0.0000000    0.7212565    0.0000000 
C     1.2488631   -1.4091393    0.0000000 
C     1.2488631    1.4091393    0.0000000 
C    -1.2488631   -1.4091393    0.0000000 
C    -1.2488631    1.4091393    0.0000000 
C     2.4447199   -0.7106107    0.0000000 
C     2.4447199    0.7106107    0.0000000 
C    -2.4447199   -0.7106107    0.0000000 
C    -2.4447199    0.7106107    0.0000000 
H     1.2461780   -2.5050137    0.0000000 
H     1.2461780    2.5050137    0.0000000 
H    -1.2461780   -2.5050137    0.0000000 
H    -1.2461780    2.5050137    0.0000000 
H     3.3967296   -1.2520266    0.0000000 
H     3.3967296    1.2520266    0.0000000 
H    -3.3967296   -1.2520266    0.0000000 
H    -3.3967296    1.2520266    0.0000000 
