30
Energy = -617.8504113957
C    -1.3005488    4.1422020    0.0000000 
C    -0.2690834    3.1713019    0.0000000 
C     1.0711128    3.6338229    0.0000000 
C     1.3594081    5.0002892    0.0000000 
C     0.3215358    5.9482172    0.0000000 
C    -1.0110100    5.5108793    0.0000000 
H    -2.3436912    3.8056823    0.0000000 
H     1.8947459    2.9128192    0.0000000 
H     2.4030810    5.3329283    0.0000000 
H     0.5523049    7.0186153    0.0000000 
H    -1.8284368    6.2399374    0.0000000 
C    -0.6285781    1.7556391    0.0000000 
C     0.2198177    0.6853035    0.0000000 
H    -1.7077732    1.5476533    0.0000000 
H     1.3056705    0.8508479    0.0000000 
C    -0.2198177   -0.6853035    0.0000000 
C     0.6285781   -1.7556391    0.0000000 
H    -1.3056705   -0.8508479    0.0000000 
H     1.7077732   -1.5476533    0.0000000 
C     0.2690834   -3.1713019    0.0000000 
C     1.3005488   -4.1422020    0.0000000 
C    -1.0711128   -3.6338229    0.0000000 
C     1.0110100   -5.5108793    0.0000000 
H     2.3436912   -3.8056823    0.0000000 
C    -1.3594081   -5.0002892    0.0000000 
H    -1.8947459   -2.9128192    0.0000000 
C    -0.3215358   -5.9482172    0.0000000 
H     1.8284368   -6.2399374    0.0000000 
H    -2.4030810   -5.3329283    0.0000000 
H    -0.5523049   -7.0186153    0.0000000 
