 Entering Gaussian System, Link 0=g16
 Input=gau.gjf
 Output=gau.log
 Initial command:
 /home/jojo/software/gaussian16/g16/l1.exe "/home/jojo/software/gaussian16/scratch/Gau-15430.inp" -scrdir="/home/jojo/software/gaussian16/scratch/"
 Entering Link 1 = /home/jojo/software/gaussian16/g16/l1.exe PID=     15432.
  
 Copyright (c) 1988,1990,1992,1993,1995,1998,2003,2009,2016,
            Gaussian, Inc.  All Rights Reserved.
  
 This is part of the Gaussian(R) 16 program.  It is based on
 the Gaussian(R) 09 system (copyright 2009, Gaussian, Inc.),
 the Gaussian(R) 03 system (copyright 2003, Gaussian, Inc.),
 the Gaussian(R) 98 system (copyright 1998, Gaussian, Inc.),
 the Gaussian(R) 94 system (copyright 1995, Gaussian, Inc.),
 the Gaussian 92(TM) system (copyright 1992, Gaussian, Inc.),
 the Gaussian 90(TM) system (copyright 1990, Gaussian, Inc.),
 the Gaussian 88(TM) system (copyright 1988, Gaussian, Inc.),
 the Gaussian 86(TM) system (copyright 1986, Carnegie Mellon
 University), and the Gaussian 82(TM) system (copyright 1983,
 Carnegie Mellon University). Gaussian is a federally registered
 trademark of Gaussian, Inc.
  
 This software contains proprietary and confidential information,
 including trade secrets, belonging to Gaussian, Inc.
  
 This software is provided under written license and may be
 used, copied, transmitted, or stored only in accord with that
 written license.
  
 The following legend is applicable only to US Government
 contracts under FAR:
  
                    RESTRICTED RIGHTS LEGEND
  
 Use, reproduction and disclosure by the US Government is
 subject to restrictions as set forth in subparagraphs (a)
 and (c) of the Commercial Computer Software - Restricted
 Rights clause in FAR 52.227-19.
  
 Gaussian, Inc.
 340 Quinnipiac St., Bldg. 40, Wallingford CT 06492
  
  
 ---------------------------------------------------------------
 Warning -- This program may not be used in any manner that
 competes with the business of Gaussian, Inc. or will provide
 assistance to any competitor of Gaussian, Inc.  The licensee
 of this program is prohibited from giving any competitor of
 Gaussian, Inc. access to this program.  By using this program,
 the user acknowledges that Gaussian, Inc. is engaged in the
 business of creating and licensing software in the field of
 computational chemistry and represents and warrants to the
 licensee that it is not a competitor of Gaussian, Inc. and that
 it will not use this program in any manner prohibited above.
 ---------------------------------------------------------------
  

 Cite this work as:
 Gaussian 16, Revision A.03,
 M. J. Frisch, G. W. Trucks, H. B. Schlegel, G. E. Scuseria, 
 M. A. Robb, J. R. Cheeseman, G. Scalmani, V. Barone, 
 G. A. Petersson, H. Nakatsuji, X. Li, M. Caricato, A. V. Marenich, 
 J. Bloino, B. G. Janesko, R. Gomperts, B. Mennucci, H. P. Hratchian, 
 J. V. Ortiz, A. F. Izmaylov, J. L. Sonnenberg, D. Williams-Young, 
 F. Ding, F. Lipparini, F. Egidi, J. Goings, B. Peng, A. Petrone, 
 T. Henderson, D. Ranasinghe, V. G. Zakrzewski, J. Gao, N. Rega, 
 G. Zheng, W. Liang, M. Hada, M. Ehara, K. Toyota, R. Fukuda, 
 J. Hasegawa, M. Ishida, T. Nakajima, Y. Honda, O. Kitao, H. Nakai, 
 T. Vreven, K. Throssell, J. A. Montgomery, Jr., J. E. Peralta, 
 F. Ogliaro, M. J. Bearpark, J. J. Heyd, E. N. Brothers, K. N. Kudin, 
 V. N. Staroverov, T. A. Keith, R. Kobayashi, J. Normand, 
 K. Raghavachari, A. P. Rendell, J. C. Burant, S. S. Iyengar, 
 J. Tomasi, M. Cossi, J. M. Millam, M. Klene, C. Adamo, R. Cammi, 
 J. W. Ochterski, R. L. Martin, K. Morokuma, O. Farkas, 
 J. B. Foresman, and D. J. Fox, Gaussian, Inc., Wallingford CT, 2016.
 
 ******************************************
 Gaussian 16:  ES64L-G16RevA.03 25-Dec-2016
                23-Dec-2024 
 ******************************************
 %chk=gau.chk
 %nprocs=2
 Will use up to    2 processors via shared memory.
 %mem=4GB
 -------------------
 #p PBE1PBE/def2TZVP
 -------------------
 1/38=1,172=1/1;
 2/12=2,17=6,18=5,40=1/2;
 3/5=44,7=101,11=2,25=1,30=1,74=-13/1,2,3;
 4//1;
 5/5=2,38=5/2;
 6/7=2,8=2,9=2,10=2,28=1/1;
 99/5=1,9=1/99;
 Leave Link    1 at Mon Dec 23 23:23:34 2024, MaxMem=   536870912 cpu:               0.0 elap:               0.0
 (Enter /home/jojo/software/gaussian16/g16/l101.exe)
 --------
 methanol
 --------
 Symbolic Z-matrix:
 Charge =  0 Multiplicity = 1
 C                    -4.89126   3.2977    0.00029 
 H                    -5.28213   3.05494  -1.01161 
 O                    -3.49307   3.28429  -0.00328 
 H                    -5.28213   2.58374   0.75736 
 H                    -5.23998   4.3154    0.27138 
 H                    -3.22959   2.35981  -0.24953 
 
 ITRead=  0  0  0  0  0  0
 MicOpt= -1 -1 -1 -1 -1 -1
 NAtoms=      6 NQM=        6 NQMF=       0 NMMI=      0 NMMIF=      0
                NMic=       0 NMicF=      0.
                    Isotopes and Nuclear Properties:
 (Nuclear quadrupole moments (NQMom) in fm**2, nuclear magnetic moments (NMagM)
  in nuclear magnetons)

  Atom         1           2           3           4           5           6
 IAtWgt=          12           1          16           1           1           1
 AtmWgt=  12.0000000   1.0078250  15.9949146   1.0078250   1.0078250   1.0078250
 NucSpn=           0           1           0           1           1           1
 AtZEff=  -0.0000000  -0.0000000  -0.0000000  -0.0000000  -0.0000000  -0.0000000
 NQMom=    0.0000000   0.0000000   0.0000000   0.0000000   0.0000000   0.0000000
 NMagM=    0.0000000   2.7928460   0.0000000   2.7928460   2.7928460   2.7928460
 AtZNuc=   6.0000000   1.0000000   8.0000000   1.0000000   1.0000000   1.0000000
 Leave Link  101 at Mon Dec 23 23:23:34 2024, MaxMem=   536870912 cpu:               0.1 elap:               0.1
 (Enter /home/jojo/software/gaussian16/g16/l202.exe)
                          Input orientation:                          
 ---------------------------------------------------------------------
 Center     Atomic      Atomic             Coordinates (Angstroms)
 Number     Number       Type             X           Y           Z
 ---------------------------------------------------------------------
      1          6           0       -4.891260    3.297700    0.000290
      2          1           0       -5.282130    3.054940   -1.011610
      3          8           0       -3.493070    3.284290   -0.003280
      4          1           0       -5.282130    2.583740    0.757360
      5          1           0       -5.239980    4.315400    0.271380
      6          1           0       -3.229590    2.359810   -0.249530
 ---------------------------------------------------------------------
                    Distance matrix (angstroms):
                    1          2          3          4          5
     1  C    0.000000
     2  H    1.111599   0.000000
     3  O    1.398259   2.066414   0.000000
     4  H    1.111608   1.830651   2.066417   0.000000
     5  H    1.109418   1.799055   2.047027   1.799055   0.000000
     6  H    1.924369   2.297149   0.992333   2.297149   2.852604
                    6
     6  H    0.000000
 Stoichiometry    CH4O
 Framework group  C1[X(CH4O)]
 Deg. of freedom    12
 Full point group                 C1      NOp   1
 Largest Abelian subgroup         C1      NOp   1
 Largest concise Abelian subgroup C1      NOp   1
                         Standard orientation:                         
 ---------------------------------------------------------------------
 Center     Atomic      Atomic             Coordinates (Angstroms)
 Number     Number       Type             X           Y           Z
 ---------------------------------------------------------------------
      1          6           0       -0.652976   -0.023082   -0.000002
      2          1           0       -0.980673   -0.562018   -0.915325
      3          8           0        0.736503    0.133360    0.000000
      4          1           0       -0.980673   -0.562026    0.915327
      5          1           0       -1.127317    0.979819    0.000008
      6          1           0        1.114494   -0.784163   -0.000000
 ---------------------------------------------------------------------
 Rotational constants (GHZ):         122.2182541          25.4274204          24.4938425
 Leave Link  202 at Mon Dec 23 23:23:35 2024, MaxMem=   536870912 cpu:               0.0 elap:               0.0
 (Enter /home/jojo/software/gaussian16/g16/l301.exe)
 Standard basis: def2TZVP (5D, 7F)
 Ernie: Thresh=  0.10000D-02 Tol=  0.10000D-05 Strict=F.
 There are    96 symmetry adapted cartesian basis functions of A   symmetry.
 There are    86 symmetry adapted basis functions of A   symmetry.
    86 basis functions,   134 primitive gaussians,    96 cartesian basis functions
     9 alpha electrons        9 beta electrons
       nuclear repulsion energy        40.3453758822 Hartrees.
 IExCor= 1009 DFT=T Ex+Corr=PBE1PBE ExCW=0 ScaHFX=  0.250000
 ScaDFX=  0.750000  0.750000  1.000000  1.000000 ScalE2=  1.000000  1.000000
 IRadAn=      5 IRanWt=     -1 IRanGd=            0 ICorTp=0 IEmpDi=  4
 NAtoms=    6 NActive=    6 NUniq=    6 SFac= 1.00D+00 NAtFMM=   60 NAOKFM=F Big=F
 Integral buffers will be    131072 words long.
 Raffenetti 2 integral format.
 Two-electron integral symmetry is turned on.
 Leave Link  301 at Mon Dec 23 23:23:35 2024, MaxMem=   536870912 cpu:               0.1 elap:               0.1
 (Enter /home/jojo/software/gaussian16/g16/l302.exe)
 NPDir=0 NMtPBC=     1 NCelOv=     1 NCel=       1 NClECP=     1 NCelD=      1
         NCelK=      1 NCelE2=     1 NClLst=     1 CellRange=     0.0.
 One-electron integrals computed using PRISM.
 One-electron integral symmetry used in STVInt
   1 Symmetry operations used in ECPInt.
 ECPInt:  NShTT=     741 NPrTT=    2136 LenC2=     741 LenP2D=    1963.
 LDataN:  DoStor=T MaxTD1= 6 Len=  172
 NBasis=    86 RedAO= T EigKep=  1.76D-03  NBF=    86
 NBsUse=    86 1.00D-06 EigRej= -1.00D+00 NBFU=    86
 Precomputing XC quadrature grid using
 IXCGrd= 4 IRadAn=           5 IRanWt=          -1 IRanGd=           0 AccXCQ= 0.00D+00.
 Generated NRdTot=       0 NPtTot=           0 NUsed=           0 NTot=          32
 NSgBfM=    96    96    96    96    96 MxSgAt=     6 MxSgA2=     6.
 Leave Link  302 at Mon Dec 23 23:23:35 2024, MaxMem=   536870912 cpu:               0.2 elap:               0.1
 (Enter /home/jojo/software/gaussian16/g16/l303.exe)
 DipDrv:  MaxL=1.
 Leave Link  303 at Mon Dec 23 23:23:35 2024, MaxMem=   536870912 cpu:               0.0 elap:               0.1
 (Enter /home/jojo/software/gaussian16/g16/l401.exe)
 ExpMin= 9.52D-02 ExpMax= 2.70D+04 ExpMxC= 9.22D+02 IAcc=3 IRadAn=         5 AccDes= 0.00D+00
 Harris functional with IExCor= 1009 and IRadAn=       5 diagonalized for initial guess.
 HarFok:  IExCor= 1009 AccDes= 0.00D+00 IRadAn=         5 IDoV= 1 UseB2=F ITyADJ=14
 ICtDFT=  3500011 ScaDFX=  1.000000  1.000000  1.000000  1.000000
 FoFCou: FMM=F IPFlag=           0 FMFlag=      100000 FMFlg1=           0
         NFxFlg=           0 DoJE=T BraDBF=F KetDBF=T FulRan=T
         wScrn=  0.000000 ICntrl=       500 IOpCl=  0 I1Cent=   200000004 NGrid=           0
         NMat0=    1 NMatS0=      1 NMatT0=    0 NMatD0=    1 NMtDS0=    0 NMtDT0=    0
 Petite list used in FoFCou.
 Harris En= -115.688055715931    
 JPrj=0 DoOrth=F DoCkMO=F.
 Leave Link  401 at Mon Dec 23 23:23:36 2024, MaxMem=   536870912 cpu:               0.5 elap:               0.3
 (Enter /home/jojo/software/gaussian16/g16/l502.exe)
 Keep R1 ints in memory in canonical form, NReq=8982357.
 FoFCou: FMM=F IPFlag=           0 FMFlag=           0 FMFlg1=           0
         NFxFlg=           0 DoJE=F BraDBF=F KetDBF=F FulRan=T
         wScrn=  0.000000 ICntrl=       600 IOpCl=  0 I1Cent=           0 NGrid=           0
         NMat0=    1 NMatS0=   3741 NMatT0=    0 NMatD0=    1 NMtDS0=    0 NMtDT0=    0
 Symmetry not used in FoFCou.
 Two-electron integral symmetry not used.
 Closed shell SCF:
 Using DIIS extrapolation, IDIIS=  1040.
 NGot=   536870912 LenX=   529851435 LenY=   529841778
 Requested convergence on RMS density matrix=1.00D-08 within 128 cycles.
 Requested convergence on MAX density matrix=1.00D-06.
 Requested convergence on             energy=1.00D-06.
 No special actions if energy rises.
 Integral accuracy reduced to 1.0D-05 until final iterations.

 Cycle   1  Pass 0  IDiag  1:
 E= -115.558039072923    
 DIIS: error= 3.49D-02 at cycle   1 NSaved=   1.
 NSaved= 1 IEnMin= 1 EnMin= -115.558039072923     IErMin= 1 ErrMin= 3.49D-02
 ErrMax= 3.49D-02  0.00D+00 EMaxC= 1.00D-01 BMatC= 9.51D-02 BMatP= 9.51D-02
 IDIUse=3 WtCom= 6.51D-01 WtEn= 3.49D-01
 Coeff-Com:  0.100D+01
 Coeff-En:   0.100D+01
 Coeff:      0.100D+01
 Gap=     0.239 Goal=   None    Shift=    0.000
 GapD=    0.239 DampG=1.000 DampE=0.500 DampFc=0.5000 IDamp=-1.
 Damping current iteration by 5.00D-01
 RMSDP=5.20D-03 MaxDP=8.44D-02              OVMax= 1.50D-01

 Cycle   2  Pass 0  IDiag  1:
 E= -115.588199797525     Delta-E=       -0.030160724602 Rises=F Damp=T
 DIIS: error= 9.80D-03 at cycle   2 NSaved=   2.
 NSaved= 2 IEnMin= 2 EnMin= -115.588199797525     IErMin= 2 ErrMin= 9.80D-03
 ErrMax= 9.80D-03  0.00D+00 EMaxC= 1.00D-01 BMatC= 6.94D-03 BMatP= 9.51D-02
 IDIUse=3 WtCom= 9.02D-01 WtEn= 9.80D-02
 Coeff-Com:  0.131D+00 0.869D+00
 Coeff-En:   0.216D+00 0.784D+00
 Coeff:      0.139D+00 0.861D+00
 Gap=     0.328 Goal=   None    Shift=    0.000
 RMSDP=8.47D-04 MaxDP=1.29D-02 DE=-3.02D-02 OVMax= 9.32D-02

 Cycle   3  Pass 0  IDiag  1:
 E= -115.633582276692     Delta-E=       -0.045382479168 Rises=F Damp=F
 DIIS: error= 4.81D-03 at cycle   3 NSaved=   3.
 NSaved= 3 IEnMin= 3 EnMin= -115.633582276692     IErMin= 3 ErrMin= 4.81D-03
 ErrMax= 4.81D-03  0.00D+00 EMaxC= 1.00D-01 BMatC= 1.94D-03 BMatP= 6.94D-03
 IDIUse=3 WtCom= 9.52D-01 WtEn= 4.81D-02
 Coeff-Com:  0.108D-01 0.320D+00 0.669D+00
 Coeff-En:   0.000D+00 0.000D+00 0.100D+01
 Coeff:      0.103D-01 0.304D+00 0.685D+00
 Gap=     0.322 Goal=   None    Shift=    0.000
 RMSDP=3.40D-04 MaxDP=6.27D-03 DE=-4.54D-02 OVMax= 1.45D-02

 Cycle   4  Pass 0  IDiag  1:
 E= -115.634665038944     Delta-E=       -0.001082762251 Rises=F Damp=F
 DIIS: error= 2.62D-03 at cycle   4 NSaved=   4.
 NSaved= 4 IEnMin= 4 EnMin= -115.634665038944     IErMin= 4 ErrMin= 2.62D-03
 ErrMax= 2.62D-03  0.00D+00 EMaxC= 1.00D-01 BMatC= 4.87D-04 BMatP= 1.94D-03
 IDIUse=3 WtCom= 9.74D-01 WtEn= 2.62D-02
 Coeff-Com: -0.579D-02 0.608D-01 0.353D+00 0.592D+00
 Coeff-En:   0.000D+00 0.000D+00 0.197D+00 0.803D+00
 Coeff:     -0.563D-02 0.592D-01 0.349D+00 0.597D+00
 Gap=     0.322 Goal=   None    Shift=    0.000
 RMSDP=1.30D-04 MaxDP=2.45D-03 DE=-1.08D-03 OVMax= 5.53D-03

 Cycle   5  Pass 0  IDiag  1:
 E= -115.635051192022     Delta-E=       -0.000386153078 Rises=F Damp=F
 DIIS: error= 3.24D-04 at cycle   5 NSaved=   5.
 NSaved= 5 IEnMin= 5 EnMin= -115.635051192022     IErMin= 5 ErrMin= 3.24D-04
 ErrMax= 3.24D-04  0.00D+00 EMaxC= 1.00D-01 BMatC= 6.35D-06 BMatP= 4.87D-04
 IDIUse=3 WtCom= 9.97D-01 WtEn= 3.24D-03
 Coeff-Com: -0.168D-02 0.210D-02 0.753D-01 0.182D+00 0.742D+00
 Coeff-En:   0.000D+00 0.000D+00 0.000D+00 0.000D+00 0.100D+01
 Coeff:     -0.168D-02 0.209D-02 0.751D-01 0.181D+00 0.743D+00
 Gap=     0.322 Goal=   None    Shift=    0.000
 RMSDP=1.56D-05 MaxDP=2.00D-04 DE=-3.86D-04 OVMax= 5.68D-04

 Cycle   6  Pass 0  IDiag  1:
 E= -115.635055830106     Delta-E=       -0.000004638084 Rises=F Damp=F
 DIIS: error= 1.51D-05 at cycle   6 NSaved=   6.
 NSaved= 6 IEnMin= 6 EnMin= -115.635055830106     IErMin= 6 ErrMin= 1.51D-05
 ErrMax= 1.51D-05  0.00D+00 EMaxC= 1.00D-01 BMatC= 9.63D-09 BMatP= 6.35D-06
 IDIUse=1 WtCom= 1.00D+00 WtEn= 0.00D+00
 Coeff-Com:  0.157D-03-0.704D-03-0.134D-02-0.128D-02 0.184D-01 0.985D+00
 Coeff:      0.157D-03-0.704D-03-0.134D-02-0.128D-02 0.184D-01 0.985D+00
 Gap=     0.322 Goal=   None    Shift=    0.000
 RMSDP=1.58D-06 MaxDP=2.62D-05 DE=-4.64D-06 OVMax= 4.34D-05

 Initial convergence to 1.0D-05 achieved.  Increase integral accuracy.
 Cycle   7  Pass 1  IDiag  1:
 E= -115.635055577332     Delta-E=        0.000000252774 Rises=F Damp=F
 DIIS: error= 4.59D-06 at cycle   1 NSaved=   1.
 NSaved= 1 IEnMin= 1 EnMin= -115.635055577332     IErMin= 1 ErrMin= 4.59D-06
 ErrMax= 4.59D-06  0.00D+00 EMaxC= 1.00D-01 BMatC= 7.04D-10 BMatP= 7.04D-10
 IDIUse=1 WtCom= 1.00D+00 WtEn= 0.00D+00
 Coeff-Com:  0.100D+01
 Coeff:      0.100D+01
 Gap=     0.322 Goal=   None    Shift=    0.000
 RMSDP=1.58D-06 MaxDP=2.62D-05 DE= 2.53D-07 OVMax= 1.48D-05

 Cycle   8  Pass 1  IDiag  1:
 E= -115.635055577611     Delta-E=       -0.000000000279 Rises=F Damp=F
 DIIS: error= 2.60D-06 at cycle   2 NSaved=   2.
 NSaved= 2 IEnMin= 2 EnMin= -115.635055577611     IErMin= 2 ErrMin= 2.60D-06
 ErrMax= 2.60D-06  0.00D+00 EMaxC= 1.00D-01 BMatC= 5.80D-10 BMatP= 7.04D-10
 IDIUse=1 WtCom= 1.00D+00 WtEn= 0.00D+00
 Coeff-Com:  0.473D+00 0.527D+00
 Coeff:      0.473D+00 0.527D+00
 Gap=     0.322 Goal=   None    Shift=    0.000
 RMSDP=1.74D-07 MaxDP=2.77D-06 DE=-2.79D-10 OVMax= 7.20D-06

 Cycle   9  Pass 1  IDiag  1:
 E= -115.635055578036     Delta-E=       -0.000000000425 Rises=F Damp=F
 DIIS: error= 9.47D-07 at cycle   3 NSaved=   3.
 NSaved= 3 IEnMin= 3 EnMin= -115.635055578036     IErMin= 3 ErrMin= 9.47D-07
 ErrMax= 9.47D-07  0.00D+00 EMaxC= 1.00D-01 BMatC= 5.50D-11 BMatP= 5.80D-10
 IDIUse=1 WtCom= 1.00D+00 WtEn= 0.00D+00
 Coeff-Com:  0.165D+00 0.273D+00 0.562D+00
 Coeff:      0.165D+00 0.273D+00 0.562D+00
 Gap=     0.322 Goal=   None    Shift=    0.000
 RMSDP=4.58D-08 MaxDP=8.39D-07 DE=-4.25D-10 OVMax= 1.66D-06

 Cycle  10  Pass 1  IDiag  1:
 E= -115.635055578072     Delta-E=       -0.000000000036 Rises=F Damp=F
 DIIS: error= 1.58D-07 at cycle   4 NSaved=   4.
 NSaved= 4 IEnMin= 4 EnMin= -115.635055578072     IErMin= 4 ErrMin= 1.58D-07
 ErrMax= 1.58D-07  0.00D+00 EMaxC= 1.00D-01 BMatC= 1.10D-12 BMatP= 5.50D-11
 IDIUse=1 WtCom= 1.00D+00 WtEn= 0.00D+00
 Coeff-Com:  0.598D-02 0.305D-01 0.147D+00 0.817D+00
 Coeff:      0.598D-02 0.305D-01 0.147D+00 0.817D+00
 Gap=     0.322 Goal=   None    Shift=    0.000
 RMSDP=1.19D-08 MaxDP=1.78D-07 DE=-3.60D-11 OVMax= 3.82D-07

 Cycle  11  Pass 1  IDiag  1:
 E= -115.635055578073     Delta-E=       -0.000000000001 Rises=F Damp=F
 DIIS: error= 5.88D-08 at cycle   5 NSaved=   5.
 NSaved= 5 IEnMin= 5 EnMin= -115.635055578073     IErMin= 5 ErrMin= 5.88D-08
 ErrMax= 5.88D-08  0.00D+00 EMaxC= 1.00D-01 BMatC= 2.04D-13 BMatP= 1.10D-12
 IDIUse=1 WtCom= 1.00D+00 WtEn= 0.00D+00
 Coeff-Com: -0.693D-02-0.140D-02 0.322D-01 0.381D+00 0.595D+00
 Coeff:     -0.693D-02-0.140D-02 0.322D-01 0.381D+00 0.595D+00
 Gap=     0.322 Goal=   None    Shift=    0.000
 RMSDP=3.59D-09 MaxDP=6.85D-08 DE=-9.09D-13 OVMax= 1.41D-07

 SCF Done:  E(RPBE1PBE) =  -115.635055578     A.U. after   11 cycles
            NFock= 11  Conv=0.36D-08     -V/T= 2.0050
 KE= 1.150566988162D+02 PE=-3.521692133878D+02 EE= 8.113208311131D+01
 Leave Link  502 at Mon Dec 23 23:23:38 2024, MaxMem=   536870912 cpu:               2.6 elap:               1.4
 (Enter /home/jojo/software/gaussian16/g16/l601.exe)
 Copying SCF densities to generalized density rwf, IOpCl= 0 IROHF=0.

 **********************************************************************

            Population analysis using the SCF density.

 **********************************************************************

 Orbital symmetries:
       Occupied  (A) (A) (A) (A) (A) (A) (A) (A) (A)
       Virtual   (A) (A) (A) (A) (A) (A) (A) (A) (A) (A) (A) (A)
                 (A) (A) (A) (A) (A) (A) (A) (A) (A) (A) (A) (A)
                 (A) (A) (A) (A) (A) (A) (A) (A) (A) (A) (A) (A)
                 (A) (A) (A) (A) (A) (A) (A) (A) (A) (A) (A) (A)
                 (A) (A) (A) (A) (A) (A) (A) (A) (A) (A) (A) (A)
                 (A) (A) (A) (A) (A) (A) (A) (A) (A) (A) (A) (A)
                 (A) (A) (A) (A) (A)
 The electronic state is 1-A.
 Alpha  occ. eigenvalues --  -19.20556 -10.26302  -1.04945  -0.69347  -0.52053
 Alpha  occ. eigenvalues --   -0.45663  -0.44135  -0.34740  -0.28727
 Alpha virt. eigenvalues --    0.03499   0.08144   0.12676   0.12770   0.14630
 Alpha virt. eigenvalues --    0.23094   0.23477   0.32607   0.37396   0.39232
 Alpha virt. eigenvalues --    0.45301   0.45678   0.47833   0.51216   0.51672
 Alpha virt. eigenvalues --    0.58495   0.70044   0.73483   0.78588   0.90300
 Alpha virt. eigenvalues --    0.92960   1.03201   1.28134   1.41161   1.47035
 Alpha virt. eigenvalues --    1.51503   1.51896   1.54125   1.57409   1.60274
 Alpha virt. eigenvalues --    1.69392   1.87196   1.93272   1.95940   2.00599
 Alpha virt. eigenvalues --    2.02282   2.15825   2.25715   2.26433   2.29590
 Alpha virt. eigenvalues --    2.30824   2.40427   2.48089   2.54267   2.59485
 Alpha virt. eigenvalues --    2.73624   2.76872   2.81222   2.90290   3.01252
 Alpha virt. eigenvalues --    3.08503   3.20500   3.31287   3.33571   3.37636
 Alpha virt. eigenvalues --    3.55343   3.55620   3.56966   3.89283   4.09231
 Alpha virt. eigenvalues --    4.15832   4.34836   4.46212   5.27115   5.36091
 Alpha virt. eigenvalues --    5.44007   5.72002   5.76462   5.92077   6.19392
 Alpha virt. eigenvalues --    6.45379   6.66968   6.74344   6.95014   7.11384
 Alpha virt. eigenvalues --   22.34809  43.68644
          Condensed to atoms (all electrons):
               1          2          3          4          5          6
     1  C    4.741232   0.417750   0.278028   0.417749   0.386353  -0.042002
     2  H    0.417750   0.616427  -0.051058  -0.049531  -0.032269  -0.008795
     3  O    0.278028  -0.051058   8.028277  -0.051059  -0.036666   0.285921
     4  H    0.417749  -0.049531  -0.051059   0.616430  -0.032270  -0.008795
     5  H    0.386353  -0.032269  -0.036666  -0.032270   0.577431   0.011808
     6  H   -0.042002  -0.008795   0.285921  -0.008795   0.011808   0.449877
 Mulliken charges:
               1
     1  C   -0.199109
     2  H    0.107477
     3  O   -0.453443
     4  H    0.107476
     5  H    0.125613
     6  H    0.311987
 Sum of Mulliken charges =  -0.00000
 Mulliken charges with hydrogens summed into heavy atoms:
               1
     1  C    0.141456
     3  O   -0.141456
 Electronic spatial extent (au):  <R**2>=             83.8598
 Charge=             -0.0000 electrons
 Dipole moment (field-independent basis, Debye):
    X=             -0.7070    Y=             -1.5298    Z=             -0.0000  Tot=              1.6853
 Quadrupole moment (field-independent basis, Debye-Ang):
   XX=            -13.0874   YY=            -12.1626   ZZ=            -13.7578
   XY=             -2.3616   XZ=              0.0000   YZ=              0.0000
 Traceless Quadrupole moment (field-independent basis, Debye-Ang):
   XX=             -0.0848   YY=              0.8400   ZZ=             -0.7552
   XY=             -2.3616   XZ=              0.0000   YZ=              0.0000
 Octapole moment (field-independent basis, Debye-Ang**2):
  XXX=              4.5814  YYY=             -0.5226  ZZZ=             -0.0000  XYY=              1.9224
  XXY=             -2.1057  XXZ=             -0.0000  XZZ=              0.4364  YZZ=             -0.7192
  YYZ=             -0.0000  XYZ=             -0.0000
 Hexadecapole moment (field-independent basis, Debye-Ang**3):
 XXXX=            -61.4412 YYYY=            -20.9072 ZZZZ=            -20.6850 XXXY=             -4.0596
 XXXZ=              0.0000 YYYX=             -3.1677 YYYZ=              0.0000 ZZZX=              0.0000
 ZZZY=              0.0000 XXYY=            -12.4317 XXZZ=            -14.3564 YYZZ=             -7.0658
 XXYZ=              0.0000 YYXZ=             -0.0000 ZZXY=              0.1481
 N-N= 4.034537588224D+01 E-N=-3.521692092502D+02  KE= 1.150566988162D+02
 No NMR shielding tensors so no spin-rotation constants.
 Leave Link  601 at Mon Dec 23 23:23:38 2024, MaxMem=   536870912 cpu:               0.1 elap:               0.2
 (Enter /home/jojo/software/gaussian16/g16/l9999.exe)
 1\1\GINC-DESKTOP-B4SKB5T\SP\RPBE1PBE\def2TZVP\C1H4O1\JOJO\23-Dec-2024\
 0\\#p PBE1PBE/def2TZVP\\methanol\\0,1\C,0,-4.89126,3.2977,0.00029\H,0,
 -5.28213,3.05494,-1.01161\O,0,-3.49307,3.28429,-0.00328\H,0,-5.28213,2
 .58374,0.75736\H,0,-5.23998,4.3154,0.27138\H,0,-3.22959,2.35981,-0.249
 53\\Version=ES64L-G16RevA.03\State=1-A\HF=-115.6350556\RMSD=3.594e-09\
 Dipole=-0.3493647,-0.5445581,-0.1450543\Quadrupole=-0.4771759,0.932654
 ,-0.455478,-1.566086,-0.4171456,0.3979991\PG=C01 [X(C1H4O1)]\\@


 WE MIGHT AS WELL ATTEMPT TO INTRODUCE A NEW PLANET 
 INTO THE SOLAR SYSTEM, OR TO ANNIHILATE ONE ALREADYIN EXISTENCE, 
 AS TO CREATE OR DESTROY A PARTICLE OF HYDROGEN.
 ALL THE CHANGES WE CAN PRODUCE CONSIST IN SEPARATING PARTICLES
 THAT ARE IN A STATE OF ... COMBINATION, AND JOINING 
 THOSE THAT WERE PREVIOUSLY AT A DISTANCE.

                                    -- JOHN DALTON, 1810
 Job cpu time:       0 days  0 hours  0 minutes  3.8 seconds.
 Elapsed time:       0 days  0 hours  0 minutes  2.4 seconds.
 File lengths (MBytes):  RWF=      6 Int=      0 D2E=      0 Chk=      2 Scr=      1
 Normal termination of Gaussian 16 at Mon Dec 23 23:23:38 2024.
