Gaussian input prepared by ASE                                          
SP        RPBE1PBE TD-FC                                              def2TZVP            
Number of atoms                            I                6
Info1-9                                    I   N=           9
          16          15           0           0           0         111
           1         218        -301
Full Title                                 C   N=           3
Gaussian input prepared by ASE      
Route                                      C   N=           5
#p td(nstates=20,root=1) pbe1pbe/def2TZVP iop(9/40=4)       
Charge                                     I                0
Multiplicity                               I                1
Number of electrons                        I               18
Number of alpha electrons                  I                9
Number of beta electrons                   I                9
Number of basis functions                  I               86
Number of independent functions            I               86
Number of point charges in /Mol/           I                0
Number of translation vectors              I                0
Atomic numbers                             I   N=           6
           6           1           8           1           1           1
Nuclear charges                            R   N=           6
  6.00000000E+00  1.00000000E+00  8.00000000E+00  1.00000000E+00  1.00000000E+00
  1.00000000E+00
Current cartesian coordinates              R   N=          18
 -1.23394635E+00 -4.36180916E-02 -3.99214463E-06 -1.85320381E+00 -1.06206086E+00
 -1.72971289E+00  1.39178978E+00  2.52013548E-01  7.66952871E-07 -1.85320356E+00
 -1.06207566E+00  1.72971676E+00 -2.13032099E+00  1.85158908E+00  1.43316267E-05
  2.10608824E+00 -1.48185240E+00 -3.88222375E-07
Number of symbols in /Mol/                 I                0
Force Field                                I                0
Atom Types                                 C   N=           6
                                                            
            
Int Atom Types                             I   N=           6
           0           0           0           0           0           0
MM charges                                 R   N=           6
  0.00000000E+00  0.00000000E+00  0.00000000E+00  0.00000000E+00  0.00000000E+00
  0.00000000E+00
Integer atomic weights                     I   N=           6
          12           1          16           1           1           1
Real atomic weights                        R   N=           6
  1.20000000E+01  1.00782504E+00  1.59949146E+01  1.00782504E+00  1.00782504E+00
  1.00782504E+00
Atom fragment info                         I   N=           6
           0           0           0           0           0           0
Atom residue num                           I   N=           6
           0           0           0           0           0           0
Nuclear spins                              I   N=           6
           0           1           0           1           1           1
Nuclear ZEff                               R   N=           6
 -3.60000000E+00 -1.00000000E+00 -5.60000000E+00 -1.00000000E+00 -1.00000000E+00
 -1.00000000E+00
Nuclear ZNuc                               R   N=           6
  6.00000000E+00  1.00000000E+00  8.00000000E+00  1.00000000E+00  1.00000000E+00
  1.00000000E+00
Nuclear QMom                               R   N=           6
  0.00000000E+00  0.00000000E+00  0.00000000E+00  0.00000000E+00  0.00000000E+00
  0.00000000E+00
Nuclear GFac                               R   N=           6
  0.00000000E+00  2.79284600E+00  0.00000000E+00  2.79284600E+00  2.79284600E+00
  2.79284600E+00
MicOpt                                     I   N=           6
          -1          -1          -1          -1          -1          -1
Number of residues                         I                0
Number of secondary structures             I                0
SymInf integers                            I   N=          26
           1           1           1           1           1           0
           0           0           0           0           0           0
           0           0           0           0           0           0
           0           0           0           0           0           0
           0           0
RotTr to input orientation                 R   N=          12
  9.92562048E-01 -1.17637964E-01 -3.13351140E-02  1.21739804E-01  9.59120107E-01
  2.55476105E-01  4.49004948E-07 -2.57390617E-01  9.66307441E-01 -8.01306343E+00
  6.12842487E+00 -2.69705912E-02
Number of contracted shells                I               38
Number of primitive shells                 I               64
Pure/Cartesian d shells                    I                0
Pure/Cartesian f shells                    I                0
Highest angular momentum                   I                3
Largest degree of contraction              I                6
Shell types                                I   N=          38
           0           0           0           0           0           1
           1           1          -2          -2          -3           0
           0           0           1           0           0           0
           0           0           1           1           1          -2
          -2          -3           0           0           0           1
           0           0           0           1           0           0
           0           1
Number of primitives per shell             I   N=          38
           6           2           1           1           1           4
           1           1           1           1           1           3
           1           1           1           6           2           1
           1           1           4           1           1           1
           1           1           3           1           1           1
           3           1           1           1           3           1
           1           1
Shell to atom map                          I   N=          38
           1           1           1           1           1           1
           1           1           1           1           1           2
           2           2           2           3           3           3
           3           3           3           3           3           3
           3           3           4           4           4           4
           5           5           5           5           6           6
           6           6
Primitive exponents                        R   N=          64
  1.35753497E+04  2.03523337E+03  4.63225624E+02  1.31200196E+02  4.28530159E+01
  1.55841858E+01  6.20671385E+00  2.57648965E+00  5.76963394E-01  2.29728314E-01
  9.51644400E-02  3.46972322E+01  7.95826228E+00  2.37808269E+00  8.14332082E-01
  2.88875473E-01  1.00568237E-01  1.09700000E+00  3.18000000E-01  7.61000000E-01
  3.40613410E+01  5.12357460E+00  1.16466260E+00  3.27230410E-01  1.03072410E-01
  8.00000000E-01  2.70323826E+04  4.05238714E+03  9.22327227E+02  2.61240710E+02
  8.53546414E+01  3.10350352E+01  1.22608607E+01  4.99870760E+00  1.17031082E+00
  4.64747410E-01  1.85045364E-01  6.32749548E+01  1.46270494E+01  4.45012235E+00
  1.52757996E+00  5.29351179E-01  1.74784213E-01  2.31400000E+00  6.45000000E-01
  1.42800000E+00  3.40613410E+01  5.12357460E+00  1.16466260E+00  3.27230410E-01
  1.03072410E-01  8.00000000E-01  3.40613410E+01  5.12357460E+00  1.16466260E+00
  3.27230410E-01  1.03072410E-01  8.00000000E-01  3.40613410E+01  5.12357460E+00
  1.16466260E+00  3.27230410E-01  1.03072410E-01  8.00000000E-01
Contraction coefficients                   R   N=          64
  6.06455036E-04  4.69790889E-03  2.43324776E-02  9.73999683E-02  3.01955843E-01
  6.62336091E-01  6.55953085E-01  3.75856333E-01  1.00000000E+00  1.00000000E+00
  1.00000000E+00  1.13272200E-02  7.61696592E-02  3.01922522E-01  7.27850273E-01
  1.00000000E+00  1.00000000E+00  1.00000000E+00  1.00000000E+00  1.00000000E+00
  2.54393072E-02  1.90085949E-01  8.52441130E-01  1.00000000E+00  1.00000000E+00
  1.00000000E+00  5.72273352E-04  4.43532335E-03  2.30201077E-02  9.28224907E-02
  2.93785000E-01  6.74016045E-01  6.38399370E-01  3.95345871E-01  1.00000000E+00
  1.00000000E+00  1.00000000E+00  1.20183322E-02  8.30054218E-02  3.19917439E-01
  7.07155429E-01  1.00000000E+00  1.00000000E+00  1.00000000E+00  1.00000000E+00
  1.00000000E+00  2.54393072E-02  1.90085949E-01  8.52441130E-01  1.00000000E+00
  1.00000000E+00  1.00000000E+00  2.54393072E-02  1.90085949E-01  8.52441130E-01
  1.00000000E+00  1.00000000E+00  1.00000000E+00  2.54393072E-02  1.90085949E-01
  8.52441130E-01  1.00000000E+00  1.00000000E+00  1.00000000E+00
Coordinates of each shell                  R   N=         114
 -1.23394635E+00 -4.36180916E-02 -3.99214463E-06 -1.23394635E+00 -4.36180916E-02
 -3.99214463E-06 -1.23394635E+00 -4.36180916E-02 -3.99214463E-06 -1.23394635E+00
 -4.36180916E-02 -3.99214463E-06 -1.23394635E+00 -4.36180916E-02 -3.99214463E-06
 -1.23394635E+00 -4.36180916E-02 -3.99214463E-06 -1.23394635E+00 -4.36180916E-02
 -3.99214463E-06 -1.23394635E+00 -4.36180916E-02 -3.99214463E-06 -1.23394635E+00
 -4.36180916E-02 -3.99214463E-06 -1.23394635E+00 -4.36180916E-02 -3.99214463E-06
 -1.23394635E+00 -4.36180916E-02 -3.99214463E-06 -1.85320381E+00 -1.06206086E+00
 -1.72971289E+00 -1.85320381E+00 -1.06206086E+00 -1.72971289E+00 -1.85320381E+00
 -1.06206086E+00 -1.72971289E+00 -1.85320381E+00 -1.06206086E+00 -1.72971289E+00
  1.39178978E+00  2.52013548E-01  7.66952871E-07  1.39178978E+00  2.52013548E-01
  7.66952871E-07  1.39178978E+00  2.52013548E-01  7.66952871E-07  1.39178978E+00
  2.52013548E-01  7.66952871E-07  1.39178978E+00  2.52013548E-01  7.66952871E-07
  1.39178978E+00  2.52013548E-01  7.66952871E-07  1.39178978E+00  2.52013548E-01
  7.66952871E-07  1.39178978E+00  2.52013548E-01  7.66952871E-07  1.39178978E+00
  2.52013548E-01  7.66952871E-07  1.39178978E+00  2.52013548E-01  7.66952871E-07
  1.39178978E+00  2.52013548E-01  7.66952871E-07 -1.85320356E+00 -1.06207566E+00
  1.72971676E+00 -1.85320356E+00 -1.06207566E+00  1.72971676E+00 -1.85320356E+00
 -1.06207566E+00  1.72971676E+00 -1.85320356E+00 -1.06207566E+00  1.72971676E+00
 -2.13032099E+00  1.85158908E+00  1.43316267E-05 -2.13032099E+00  1.85158908E+00
  1.43316267E-05 -2.13032099E+00  1.85158908E+00  1.43316267E-05 -2.13032099E+00
  1.85158908E+00  1.43316267E-05  2.10608824E+00 -1.48185240E+00 -3.88222375E-07
  2.10608824E+00 -1.48185240E+00 -3.88222375E-07  2.10608824E+00 -1.48185240E+00
 -3.88222375E-07  2.10608824E+00 -1.48185240E+00 -3.88222375E-07
Num ILSW                                   I              100
ILSW                                       I   N=         100
           0           0           0           0           2           0
           0           0           0           0        1009          -1
           5           0           0           0           0           0
           0           0           0           0           0           0
           1           0           0           0           0           0
           0           0      100000           0          -1           0
           0           0           0           0           0           0
           0           0           0           1           0           0
           0 -2000000000           1           0           0           0
           0           0           4          52           0           0
           0           0          13           0           0           0
           0           0           0           6           0           1
           0           0           0           0           0           0
           0           0           0           0           0           0
           0           0           0           0           0           0
           0           0           0           0           0           0
           0           0           0           0
Num RLSW                                   I               52
RLSW                                       R   N=          52
  7.50000000E-01  7.50000000E-01  1.00000000E+00  1.00000000E+00  2.50000000E-01
  0.00000000E+00  0.00000000E+00  1.00000000E+00  0.00000000E+00  0.00000000E+00
  0.00000000E+00  0.00000000E+00  1.00000000E+00  0.00000000E+00  0.00000000E+00
  0.00000000E+00  0.00000000E+00  1.00000000E+00  0.00000000E+00  0.00000000E+00
  0.00000000E+00  0.00000000E+00  1.00000000E+00  0.00000000E+00  0.00000000E+00
  0.00000000E+00  0.00000000E+00  1.00000000E+00  0.00000000E+00  0.00000000E+00
  0.00000000E+00  0.00000000E+00  1.00000000E+00  0.00000000E+00  0.00000000E+00
  0.00000000E+00  0.00000000E+00  0.00000000E+00  1.00000000E+00  1.00000000E+00
  0.00000000E+00  1.00000000E+00  0.00000000E+00  0.00000000E+00  0.00000000E+00
  0.00000000E+00  0.00000000E+00  0.00000000E+00  0.00000000E+00  0.00000000E+00
  0.00000000E+00  0.00000000E+00
ECP-MxAtEC                                 I           250000
ECP-MaxLECP                                I               10
ECP-MaxAtL                                 I          2250000
ECP-MxTECP                                 I         11250000
ECP-LenNCZ                                 I                0
ECP-KFirst                                 I   N=          60
           0           0           0           0           0           0
           0           0           0           0           0           0
           0           0           0           0           0           0
           0           0           0           0           0           0
           0           0           0           0           0           0
           0           0           0           0           0           0
           0           0           0           0           0           0
           0           0           0           0           0           0
           0           0           0           0           0           0
           0           0           0           0           0           0
ECP-KLast                                  I   N=          60
           0           0           0           0           0           0
           0           0           0           0           0           0
           0           0           0           0           0           0
           0           0           0           0           0           0
           0           0           0           0           0           0
           0           0           0           0           0           0
           0           0           0           0           0           0
           0           0           0           0           0           0
           0           0           0           0           0           0
           0           0           0           0           0           0
ECP-LMax                                   I   N=           6
           0           0           0           0           0           0
ECP-LPSkip                                 I   N=           6
           1           1           1           1           1           1
ECP-RNFroz                                 R   N=           6
  0.00000000E+00  0.00000000E+00  0.00000000E+00  0.00000000E+00  0.00000000E+00
  0.00000000E+00
ECP-NLP                                    I                0
ECP-CLP1                                   R      0.000000000000000E+00
ECP-CLP2                                   R      0.000000000000000E+00
ECP-ZLP                                    R      0.000000000000000E+00
MxBond                                     I                4
NBond                                      I   N=           6
           4           1           2           1           1           1
IBond                                      I   N=          24
           2           3           4           5           1           0
           0           0           1           6           0           0
           1           0           0           0           1           0
           0           0           3           0           0           0
RBond                                      R   N=          24
  1.00000000E+00  1.00000000E+00  1.00000000E+00  1.00000000E+00  1.00000000E+00
  0.00000000E+00  0.00000000E+00  0.00000000E+00  1.00000000E+00  1.00000000E+00
  0.00000000E+00  0.00000000E+00  1.00000000E+00  0.00000000E+00  0.00000000E+00
  0.00000000E+00  1.00000000E+00  0.00000000E+00  0.00000000E+00  0.00000000E+00
  1.00000000E+00  0.00000000E+00  0.00000000E+00  0.00000000E+00
Virial Ratio                               R      2.005026710898609E+00
SCF Energy                                 R     -1.156350555780722E+02
CIS Energy                                 R     -1.153796751303999E+02
Total Energy                               R     -1.153796751303999E+02
Post-SCF wavefunction norm                 R      1.000000000000000E+00
RMS Density                                R      3.594040462154718E-09
Job Status                                 I                1
Nuclear derivative order                   I                0
External E-field                           R   N=          35
  0.00000000E+00  0.00000000E+00  0.00000000E+00  0.00000000E+00  0.00000000E+00
  0.00000000E+00  0.00000000E+00  0.00000000E+00  0.00000000E+00  0.00000000E+00
  0.00000000E+00  0.00000000E+00  0.00000000E+00  0.00000000E+00  0.00000000E+00
  0.00000000E+00  0.00000000E+00  0.00000000E+00  0.00000000E+00  0.00000000E+00
  0.00000000E+00  0.00000000E+00  0.00000000E+00  0.00000000E+00  0.00000000E+00
  0.00000000E+00  0.00000000E+00  0.00000000E+00  0.00000000E+00  0.00000000E+00
  0.00000000E+00  0.00000000E+00  0.00000000E+00  0.00000000E+00  0.00000000E+00
IOpCl                                      I                0
IROHF                                      I                0
Alpha Orbital Energies                     R   N=          86
 -1.92055566E+01 -1.02630152E+01 -1.04945479E+00 -6.93465957E-01 -5.20527505E-01
 -4.56632212E-01 -4.41353832E-01 -3.47401893E-01 -2.87268716E-01  3.49949278E-02
  8.14382052E-02  1.26757768E-01  1.27700151E-01  1.46297437E-01  2.30939561E-01
  2.34766239E-01  3.26066138E-01  3.73960543E-01  3.92320089E-01  4.53014395E-01
  4.56775424E-01  4.78334804E-01  5.12157371E-01  5.16722932E-01  5.84948629E-01
  7.00440022E-01  7.34826304E-01  7.85875514E-01  9.03001826E-01  9.29595772E-01
  1.03201145E+00  1.28133844E+00  1.41160902E+00  1.47034526E+00  1.51502860E+00
  1.51896286E+00  1.54125146E+00  1.57409407E+00  1.60273714E+00  1.69391906E+00
  1.87195919E+00  1.93271796E+00  1.95939697E+00  2.00599102E+00  2.02281675E+00
  2.15825013E+00  2.25714688E+00  2.26432897E+00  2.29589801E+00  2.30823549E+00
  2.40427380E+00  2.48089402E+00  2.54267175E+00  2.59484953E+00  2.73624113E+00
  2.76871787E+00  2.81222173E+00  2.90290498E+00  3.01251507E+00  3.08502774E+00
  3.20499960E+00  3.31287368E+00  3.33571242E+00  3.37636447E+00  3.55343473E+00
  3.55620095E+00  3.56966474E+00  3.89282824E+00  4.09231321E+00  4.15831774E+00
  4.34835900E+00  4.46212283E+00  5.27115134E+00  5.36090651E+00  5.44006651E+00
  5.72001559E+00  5.76462088E+00  5.92077003E+00  6.19392322E+00  6.45379059E+00
  6.66968122E+00  6.74343679E+00  6.95013921E+00  7.11384074E+00  2.23480946E+01
  4.36864404E+01
Alpha MO coefficients                      R   N=        7396
  2.68843167E-05 -1.46358710E-04 -1.32461057E-03  5.95716951E-03 -7.38027437E-03
  7.33103556E-05 -1.85632424E-05 -1.88499624E-09  4.20315611E-03  5.97383875E-04
  1.85420814E-08 -5.86377325E-04 -3.53368977E-04 -2.08062937E-08 -2.59487416E-04
  1.10655191E-09  1.52102093E-09  4.35738481E-04  7.37340517E-05 -1.23121635E-03
  8.22230139E-09 -5.61488569E-09  1.92773482E-03  4.01475657E-04 -1.21307472E-09
 -3.96615296E-04 -1.68582284E-05  1.17304923E-09  1.58304575E-09  4.55924272E-04
  8.99892923E-05  4.07022794E-05  2.13338319E-04  1.46011340E-03 -1.32637906E-04
 -3.92104393E-05 -6.33142949E-05  4.35394382E-01  6.39720578E-01  3.39271175E-02
 -2.37398925E-02  8.02233034E-03 -1.28563833E-03 -1.52574499E-03 -4.94711115E-09
  3.41995354E-03  2.42700863E-03  7.83313028E-09 -3.92853255E-04 -4.67650461E-04
  2.08810891E-09 -2.32871530E-04  6.28585782E-10  1.56373391E-10  8.86157359E-05
 -6.07350687E-05  1.12603182E-03 -3.42265096E-09 -8.43452994E-10 -5.77030445E-04
  2.36911776E-04 -7.63044672E-10 -8.25668851E-05 -1.45108991E-04  4.95560302E-10
 -1.04533542E-10  3.10215950E-04  3.31576670E-06  4.07020376E-05  2.13327996E-04
  1.46011908E-03 -1.32643018E-04 -3.92090796E-05  6.33148459E-05  2.52064525E-06
  1.28583257E-04  1.72405936E-03 -1.97574690E-04  6.90520462E-05  2.92562034E-09
  7.82828590E-04  1.39862334E-03 -1.13025774E-03 -3.73382804E-04  9.37645558E-04
  4.92964325E-10  4.67196987E-01  6.08862912E-01  3.20233685E-02 -1.14078174E-02
  1.50229698E-02  8.85476480E-04  3.30240696E-05 -1.35239350E-08  7.10353871E-04
  6.19578697E-04 -6.82394559E-08 -7.08177527E-04 -3.14356516E-04  2.89448108E-08
 -2.13220994E-04  1.44327936E-08  2.74578782E-08  3.92784034E-04  4.48804281E-05
 -2.39342494E-04  1.72343135E-08  3.93878482E-08  2.58315382E-04  1.60350465E-04
 -1.62928816E-08 -9.20820055E-04 -1.28181593E-03 -2.71544438E-09 -1.95361231E-08
  1.37941891E-03  1.18380098E-04 -4.86522884E-04 -1.54583934E-03 -3.19959048E-03
 -5.20916980E-04 -8.80115950E-04 -1.52402136E-03 -1.91454289E-05 -1.50186254E-04
  1.49678620E-03 -2.56957606E-03 -1.58904985E-03 -6.47412761E-04 -5.44487405E-05
 -1.42934901E-09  3.14036210E-03  2.09303830E-04  6.34259414E-09  4.20915992E-04
 -8.28328890E-04 -2.28757846E-09 -6.34252357E-05  8.54891688E-10  2.35672452E-10
  2.13462182E-04  6.09210322E-05  8.63148486E-04 -7.98777081E-09 -1.31740644E-09
 -1.96816687E-03 -5.20278320E-04 -1.80566299E-09 -4.51864242E-04  5.57774835E-06
  2.91038493E-09  1.40266995E-10  4.73094409E-04  1.97406851E-04 -4.86474907E-04
 -1.54570774E-03 -3.19961231E-03 -5.20895213E-04 -8.80095344E-04  1.52397252E-03
 -5.22248347E-04 -1.86362552E-03 -2.74216403E-03 -8.18381863E-04  1.74603249E-03
  1.66503992E-08 -2.57691627E-04 -5.99796665E-04 -9.86546722E-04  5.48552745E-05
 -1.65783159E-04  4.97522784E-10 -3.69128293E-02 -7.78321910E-02  1.21898757E-01
  1.02074000E-01  5.78833535E-03  8.05916917E-02  4.43298574E-03  4.07464282E-08
  4.18481966E-02 -9.98923201E-04  8.15065903E-08  3.85886464E-03 -1.68061312E-03
 -2.99366948E-08 -5.41516531E-03  3.44866986E-08  3.14297427E-08  9.15613492E-03
  1.22407579E-03 -3.27513792E-03  2.24395027E-08 -9.90272185E-10  6.02491107E-03
 -1.45153817E-03 -2.28487467E-08 -2.54844621E-03 -1.64957869E-03 -1.85535443E-09
 -4.89126130E-09  3.16341415E-03  2.84903344E-05  1.40022708E-02  1.22571647E-02
  1.17321311E-03  2.39156495E-03  1.01614468E-03  1.68152129E-03 -9.32234694E-02
 -2.19707508E-01  3.11886887E-01  4.38513615E-01  1.39029724E-01 -4.82368197E-02
 -6.15569304E-02 -1.78425231E-07 -4.86626847E-02 -5.64183079E-02 -1.84284290E-07
 -4.08953419E-03 -5.30304507E-03 -1.73028571E-08 -3.86116072E-03  1.14015298E-08
  7.23867045E-09  6.45069390E-04 -7.29258806E-04 -1.25901147E-02  5.57674198E-08
  3.16533622E-08  4.38427662E-03 -3.71018401E-04  1.30042822E-08  1.27304085E-03
  1.91452084E-03 -6.61909805E-09 -3.60290508E-09 -3.37246176E-03  2.04292401E-04
  1.40020736E-02  1.22570319E-02  1.17324756E-03  2.39153507E-03  1.01614109E-03
 -1.68149264E-03  1.29833101E-02  1.24998178E-02  2.12055759E-03  2.78557286E-03
 -1.64661034E-03 -1.30938138E-08  8.08117619E-02  6.48199930E-02  4.18039584E-03
 -7.87271265E-03  1.32426684E-02  3.12612717E-09 -8.57368925E-02 -1.83475878E-01
  2.89260548E-01  3.42979066E-01  5.37507341E-02 -4.37856071E-02  1.12642965E-02
 -9.65932388E-07 -2.70793647E-02  8.62063661E-03 -1.71418335E-07 -1.01817429E-02
 -6.15645712E-03 -2.27113890E-07  1.67457495E-03  5.12707093E-08  1.63399391E-07
 -3.11863625E-03  1.10405235E-03 -8.35791090E-04 -5.76959710E-08  1.28401824E-08
 -2.68990139E-03 -7.80266339E-04 -3.58360834E-08 -2.89982119E-03 -4.19599859E-03
 -3.30751481E-08 -2.37452065E-08  3.36414828E-03  9.20670263E-04  7.77519928E-02
  8.97050003E-02  1.56150213E-02  2.22586648E-03  6.38359137E-03  1.00323961E-02
  2.96451851E-02  7.06063569E-02 -1.05381062E-01 -1.52070943E-01 -9.21334833E-02
 -1.43544079E-01  6.53624864E-02 -2.44307333E-07 -1.13616477E-01  5.69856732E-02
 -1.93953655E-07 -3.52710858E-02  1.57253981E-02 -3.85042069E-08  5.29843159E-05
  1.70224935E-08 -1.59235344E-09  4.70717660E-03  2.71086137E-03  8.30524821E-04
  4.15317996E-08  7.69448033E-09  1.25091580E-02  8.03883859E-03  5.58217451E-09
  1.92722773E-03 -1.44921341E-03 -8.27470012E-09 -4.58145193E-09  6.45324353E-04
 -3.16515770E-05  7.77503126E-02  8.97032975E-02  1.56150364E-02  2.22575884E-03
  6.38350898E-03 -1.00322010E-02  8.47422267E-02  9.51590640E-02  2.31009881E-02
  4.86572580E-03 -1.20352849E-02 -1.26385255E-07 -7.41659354E-02 -7.73769007E-02
 -1.82898608E-02 -7.58344546E-04 -1.07583178E-02 -1.74045451E-08  1.37709818E-02
  2.94626947E-02 -4.01179762E-02 -7.31413645E-02 -2.94270824E-02  1.52876270E-01
  1.57551586E-01  4.01893791E-06  1.03880894E-01  1.21710448E-01  2.53386921E-06
  2.92857385E-02  5.00626723E-02  9.43027989E-07 -9.49345282E-03 -4.50021922E-08
 -1.28430833E-07  7.38516053E-03  6.23710586E-03 -2.44094711E-03  1.09186465E-07
  1.14664626E-08  4.07947000E-03  1.65502731E-02 -3.66121353E-08 -9.17977216E-04
 -7.44909560E-04  1.31917044E-08  2.79073481E-08 -2.65216009E-04  4.07559580E-03
 -7.17872442E-02 -9.60101841E-02 -2.27558914E-02  1.65055569E-04 -1.27964950E-03
 -1.06553012E-02 -1.87485101E-02 -4.48526146E-02  6.65413697E-02  1.07866400E-01
  8.30396108E-02 -1.92554137E-01  2.47391598E-01  1.42357361E-06 -1.63970422E-01
  1.99808172E-01  1.19815381E-06 -5.52556379E-02  8.11767823E-02  5.78987137E-07
  1.20605557E-03 -2.33857111E-08 -2.49058170E-08  7.65811127E-03  1.58866937E-03
  1.00603966E-03 -8.15865255E-08 -1.20332805E-07  2.20965868E-02  9.65008860E-04
 -2.57944476E-08  2.84185063E-03 -2.82812053E-03  2.25513799E-09  9.02251860E-09
 -1.25317038E-04  1.08552513E-03 -7.17838686E-02 -9.60060498E-02 -2.27549950E-02
  1.65217568E-04 -1.27945445E-03  1.06550502E-02  1.47846949E-02  2.26654009E-02
 -3.32472722E-03  7.51277725E-03  5.85082612E-04  5.59043980E-08 -1.25444846E-01
 -1.77740062E-01 -5.53328296E-02  5.43202983E-03 -1.29635931E-02  7.18725445E-08
 -1.90242471E-07 -4.09855854E-07  4.20870387E-07  1.70804335E-06  1.05543277E-06
 -6.66171512E-06  4.68753769E-06  2.95670626E-01 -5.12355789E-06  2.84913778E-06
  2.38443265E-01 -2.00924874E-06  1.63428611E-06  7.83641392E-02 -7.98623108E-08
  6.53844296E-04 -9.21830033E-03 -4.72998770E-07 -3.38618334E-07  3.04250873E-07
  5.05098799E-03 -1.20134610E-02 -2.67888485E-07 -1.45153953E-07 -2.01535258E-03
  5.43924902E-08  4.78745123E-08  1.91310989E-03  2.66596973E-04 -6.62450450E-08
 -4.64902210E-08 -1.18453777E-01 -1.58780158E-01 -7.41997177E-02 -6.86655481E-03
 -9.75571095E-03 -6.54440668E-03  3.24394459E-08  8.07041469E-08 -1.16668779E-07
 -2.10012283E-07 -1.19692429E-08  7.19793373E-06 -1.82044309E-06  2.10196037E-01
  6.03383525E-06 -1.40912244E-06  1.79932586E-01  2.80032130E-06 -6.00415077E-07
  1.00255327E-01  2.63635075E-09 -3.86159529E-03 -1.98658621E-03 -1.53680088E-07
 -1.49300023E-07 -3.18531992E-09 -1.43973167E-02 -1.12707579E-02 -4.07120555E-07
 -5.42291869E-07 -3.52633872E-03 -6.77331119E-08  2.94470730E-08  1.75628352E-03
  1.42956297E-04 -5.40581943E-09  2.23890587E-08  1.18453332E-01  1.58780173E-01
  7.42002495E-02  6.86607232E-03  9.75598091E-03 -6.54447900E-03  5.06645165E-06
  7.46050350E-06  1.93637221E-06  1.89512625E-07 -7.43492977E-07  1.07029189E-02
  2.28068603E-06  3.22517136E-06  1.86530482E-06  1.49315319E-07  2.85485344E-07
  1.17526404E-02  7.42016419E-04  1.77834873E-03 -6.85706136E-03  2.66057771E-03
  1.95346568E-02 -2.15057214E-01  1.92001789E-01 -7.18119840E-06 -1.62038485E-01
  1.48034424E-01 -6.09203540E-06 -5.86931684E-02  8.94472244E-02 -1.66860098E-06
 -3.19986247E-04 -7.37212625E-08  3.46492967E-07 -1.34920440E-02 -5.01203685E-03
  5.26062003E-03 -1.94233798E-07  4.26537824E-07 -7.23490782E-03  6.94709762E-03
  5.08340921E-08  1.53604975E-03 -2.13270533E-04 -8.95462701E-08 -2.18959048E-08
 -2.02167985E-03  8.70420680E-04 -1.33474023E-02 -1.97894709E-02  5.65033916E-04
 -7.45406138E-03  4.58272393E-03 -2.25500514E-03 -1.60633765E-02 -3.84184352E-02
  5.94669546E-02  8.56796534E-02  9.18603601E-02  2.66559246E-01  1.17148524E-01
 -5.25205390E-06  2.23022517E-01  9.70818643E-02 -4.46459486E-06  1.23809793E-01
  5.04669659E-02 -2.68598384E-06  2.28000004E-03  7.89504710E-08  4.42821369E-08
 -2.89920105E-03 -5.83619192E-03  6.62889702E-03  2.84802363E-07  2.68869439E-07
 -7.17490590E-03 -2.46155644E-02  7.53926034E-08 -2.93520308E-03 -7.94356555E-04
 -3.15525363E-08  8.29041846E-09  3.13697897E-04  1.06692402E-03 -1.33538271E-02
 -1.97981697E-02  5.60182816E-04 -7.45435427E-03  4.58215394E-03  2.25539010E-03
  1.36046592E-01  1.98157764E-01  4.82377012E-02  4.02624235E-03 -1.62816161E-02
 -5.24260180E-07  2.01910190E-02  1.69901471E-02  3.53625052E-02  1.32993158E-02
  6.47863012E-03 -2.99429549E-07  4.56832008E-03  1.00376476E-02 -1.95530208E-02
 -2.05818237E-02  8.15157127E-02 -6.48681949E-02 -2.20415032E-01  1.33390989E-07
 -4.26683890E-02 -1.71663126E-01  9.28649482E-07  3.96742885E-03 -5.46141847E-02
  9.09643184E-07  1.17365582E-02  2.20989000E-07 -7.26277594E-08 -9.71705554E-04
  1.33074786E-02  2.37284259E-03  2.64532608E-07 -2.66054810E-07 -1.19045782E-03
  2.93464353E-02 -1.07267018E-08  4.42111154E-04 -7.34914518E-04  6.98135147E-08
  3.58052136E-08 -1.64232296E-03  3.87345327E-03  7.37250862E-02  1.13570218E-01
  6.37715464E-02  9.97299682E-04 -2.45266077E-03  9.06022818E-03 -2.49780359E-02
 -6.00758685E-02  9.50012236E-02  1.33211670E-01  1.49301497E-01  1.30989138E-01
  2.90854324E-01  5.56170711E-06  1.09850539E-01  2.35765001E-01  4.71607195E-06