 Entering Gaussian System, Link 0=g16
 Input=methanol.gjf
 Output=methanol.log
 Initial command:
 /usr/g16/l1.exe "/scratch/lvziyi/gaussian/Gau-28145.inp" -scrdir="/scratch/lvziyi/gaussian/"
 Entering Link 1 = /usr/g16/l1.exe PID=     28146.
  
 Copyright (c) 1988,1990,1992,1993,1995,1998,2003,2009,2016,
            Gaussian, Inc.  All Rights Reserved.
  
 This is part of the Gaussian(R) 16 program.  It is based on
 the Gaussian(R) 09 system (copyright 2009, Gaussian, Inc.),
 the Gaussian(R) 03 system (copyright 2003, Gaussian, Inc.),
 the Gaussian(R) 98 system (copyright 1998, Gaussian, Inc.),
 the Gaussian(R) 94 system (copyright 1995, Gaussian, Inc.),
 the Gaussian 92(TM) system (copyright 1992, Gaussian, Inc.),
 the Gaussian 90(TM) system (copyright 1990, Gaussian, Inc.),
 the Gaussian 88(TM) system (copyright 1988, Gaussian, Inc.),
 the Gaussian 86(TM) system (copyright 1986, Carnegie Mellon
 University), and the Gaussian 82(TM) system (copyright 1983,
 Carnegie Mellon University). Gaussian is a federally registered
 trademark of Gaussian, Inc.
  
 This software contains proprietary and confidential information,
 including trade secrets, belonging to Gaussian, Inc.
  
 This software is provided under written license and may be
 used, copied, transmitted, or stored only in accord with that
 written license.
  
 The following legend is applicable only to US Government
 contracts under FAR:
  
                    RESTRICTED RIGHTS LEGEND
  
 Use, reproduction and disclosure by the US Government is
 subject to restrictions as set forth in subparagraphs (a)
 and (c) of the Commercial Computer Software - Restricted
 Rights clause in FAR 52.227-19.
  
 Gaussian, Inc.
 340 Quinnipiac St., Bldg. 40, Wallingford CT 06492
  
  
 ---------------------------------------------------------------
 Warning -- This program may not be used in any manner that
 competes with the business of Gaussian, Inc. or will provide
 assistance to any competitor of Gaussian, Inc.  The licensee
 of this program is prohibited from giving any competitor of
 Gaussian, Inc. access to this program.  By using this program,
 the user acknowledges that Gaussian, Inc. is engaged in the
 business of creating and licensing software in the field of
 computational chemistry and represents and warrants to the
 licensee that it is not a competitor of Gaussian, Inc. and that
 it will not use this program in any manner prohibited above.
 ---------------------------------------------------------------
  

 Cite this work as:
 Gaussian 16, Revision A.03,
 M. J. Frisch, G. W. Trucks, H. B. Schlegel, G. E. Scuseria, 
 M. A. Robb, J. R. Cheeseman, G. Scalmani, V. Barone, 
 G. A. Petersson, H. Nakatsuji, X. Li, M. Caricato, A. V. Marenich, 
 J. Bloino, B. G. Janesko, R. Gomperts, B. Mennucci, H. P. Hratchian, 
 J. V. Ortiz, A. F. Izmaylov, J. L. Sonnenberg, D. Williams-Young, 
 F. Ding, F. Lipparini, F. Egidi, J. Goings, B. Peng, A. Petrone, 
 T. Henderson, D. Ranasinghe, V. G. Zakrzewski, J. Gao, N. Rega, 
 G. Zheng, W. Liang, M. Hada, M. Ehara, K. Toyota, R. Fukuda, 
 J. Hasegawa, M. Ishida, T. Nakajima, Y. Honda, O. Kitao, H. Nakai, 
 T. Vreven, K. Throssell, J. A. Montgomery, Jr., J. E. Peralta, 
 F. Ogliaro, M. J. Bearpark, J. J. Heyd, E. N. Brothers, K. N. Kudin, 
 V. N. Staroverov, T. A. Keith, R. Kobayashi, J. Normand, 
 K. Raghavachari, A. P. Rendell, J. C. Burant, S. S. Iyengar, 
 J. Tomasi, M. Cossi, J. M. Millam, M. Klene, C. Adamo, R. Cammi, 
 J. W. Ochterski, R. L. Martin, K. Morokuma, O. Farkas, 
 J. B. Foresman, and D. J. Fox, Gaussian, Inc., Wallingford CT, 2016.
 
 ******************************************
 Gaussian 16:  ES64L-G16RevA.03 25-Dec-2016
                 5-Dec-2023 
 ******************************************
 %chk=methanol.chk
 %mem=5gb
 %nprocshared=24
 Will use up to   24 processors via shared memory.
 -----------------------------------------------------
 #p td(nstates=20,root=1) pbe1pbe/def2TZVP iop(9/40=4)
 -----------------------------------------------------
 1/38=1,172=1/1;
 2/12=2,17=6,18=5,40=1/2;
 3/5=44,7=101,11=9,25=1,30=1,74=-13/1,2,3,8;
 4//1;
 5/5=2,38=5/2;
 8/6=1,10=1,107=1,108=20/1;
 9/8=1,40=4,41=20,42=1,70=2/14;
 6/7=2,8=2,9=2,10=2/1;
 99/5=1,9=1/99;
 Leave Link    1 at Tue Dec  5 22:56:47 2023, MaxMem=   671088640 cpu:               3.2 elap:               0.2
 (Enter /usr/g16/l101.exe)
 ------------------------------
 Gaussian input prepared by ASE
 ------------------------------
 Symbolic Z-matrix:
 Charge =  0 Multiplicity = 1
 C                    -4.89126   3.2977    0.00029 
 H                    -5.28213   3.05494  -1.01161 
 O                    -3.49307   3.28429  -0.00328 
 H                    -5.28213   2.58374   0.75736 
 H                    -5.23998   4.3154    0.27138 
 H                    -3.22959   2.35981  -0.24953 
 
 ITRead=  0  0  0  0  0  0
 MicOpt= -1 -1 -1 -1 -1 -1
 NAtoms=      6 NQM=        6 NQMF=       0 NMMI=      0 NMMIF=      0
                NMic=       0 NMicF=      0.
                    Isotopes and Nuclear Properties:
 (Nuclear quadrupole moments (NQMom) in fm**2, nuclear magnetic moments (NMagM)
  in nuclear magnetons)

  Atom         1           2           3           4           5           6
 IAtWgt=          12           1          16           1           1           1
 AtmWgt=  12.0000000   1.0078250  15.9949146   1.0078250   1.0078250   1.0078250
 NucSpn=           0           1           0           1           1           1
 AtZEff=  -0.0000000  -0.0000000  -0.0000000  -0.0000000  -0.0000000  -0.0000000
 NQMom=    0.0000000   0.0000000   0.0000000   0.0000000   0.0000000   0.0000000
 NMagM=    0.0000000   2.7928460   0.0000000   2.7928460   2.7928460   2.7928460
 AtZNuc=   6.0000000   1.0000000   8.0000000   1.0000000   1.0000000   1.0000000
 Leave Link  101 at Tue Dec  5 22:56:47 2023, MaxMem=   671088640 cpu:               3.9 elap:               0.2
 (Enter /usr/g16/l202.exe)
                          Input orientation:                          
 ---------------------------------------------------------------------
 Center     Atomic      Atomic             Coordinates (Angstroms)
 Number     Number       Type             X           Y           Z
 ---------------------------------------------------------------------
      1          6           0       -4.891260    3.297700    0.000290
      2          1           0       -5.282130    3.054940   -1.011610
      3          8           0       -3.493070    3.284290   -0.003280
      4          1           0       -5.282130    2.583740    0.757360
      5          1           0       -5.239980    4.315400    0.271380
      6          1           0       -3.229590    2.359810   -0.249530
 ---------------------------------------------------------------------
                    Distance matrix (angstroms):
                    1          2          3          4          5
     1  C    0.000000
     2  H    1.111599   0.000000
     3  O    1.398259   2.066414   0.000000
     4  H    1.111608   1.830651   2.066417   0.000000
     5  H    1.109418   1.799055   2.047027   1.799055   0.000000
     6  H    1.924369   2.297149   0.992333   2.297149   2.852604
                    6
     6  H    0.000000
 Stoichiometry    CH4O
 Framework group  C1[X(CH4O)]
 Deg. of freedom    12
 Full point group                 C1      NOp   1
 Largest Abelian subgroup         C1      NOp   1
 Largest concise Abelian subgroup C1      NOp   1
                         Standard orientation:                         
 ---------------------------------------------------------------------
 Center     Atomic      Atomic             Coordinates (Angstroms)
 Number     Number       Type             X           Y           Z
 ---------------------------------------------------------------------
      1          6           0       -0.652976   -0.023082   -0.000002
      2          1           0       -0.980673   -0.562018   -0.915325
      3          8           0        0.736503    0.133360    0.000000
      4          1           0       -0.980673   -0.562026    0.915327
      5          1           0       -1.127317    0.979819    0.000008
      6          1           0        1.114494   -0.784163   -0.000000
 ---------------------------------------------------------------------
 Rotational constants (GHZ):         122.2182541          25.4274204          24.4938425
 Leave Link  202 at Tue Dec  5 22:56:48 2023, MaxMem=   671088640 cpu:               4.0 elap:               0.2
 (Enter /usr/g16/l301.exe)
 Standard basis: def2TZVP (5D, 7F)
 Ernie: Thresh=  0.10000D-02 Tol=  0.10000D-05 Strict=F.
 There are    96 symmetry adapted cartesian basis functions of A   symmetry.
 There are    86 symmetry adapted basis functions of A   symmetry.
    86 basis functions,   134 primitive gaussians,    96 cartesian basis functions
     9 alpha electrons        9 beta electrons
       nuclear repulsion energy        40.3453758822 Hartrees.
 IExCor= 1009 DFT=T Ex+Corr=PBE1PBE ExCW=0 ScaHFX=  0.250000
 ScaDFX=  0.750000  0.750000  1.000000  1.000000 ScalE2=  1.000000  1.000000
 IRadAn=      5 IRanWt=     -1 IRanGd=            0 ICorTp=0 IEmpDi=  4
 NAtoms=    6 NActive=    6 NUniq=    6 SFac= 1.00D+00 NAtFMM=   60 NAOKFM=F Big=F
 Integral buffers will be    131072 words long.
 Regular integral format.
 Two-electron integral symmetry is turned on.
 Leave Link  301 at Tue Dec  5 22:56:48 2023, MaxMem=   671088640 cpu:               6.6 elap:               0.4
 (Enter /usr/g16/l302.exe)
 NPDir=0 NMtPBC=     1 NCelOv=     1 NCel=       1 NClECP=     1 NCelD=      1
         NCelK=      1 NCelE2=     1 NClLst=     1 CellRange=     0.0.
 One-electron integrals computed using PRISM.
 One-electron integral symmetry used in STVInt
   1 Symmetry operations used in ECPInt.
 ECPInt:  NShTT=     741 NPrTT=    2136 LenC2=     741 LenP2D=    1963.
 LDataN:  DoStor=T MaxTD1= 6 Len=  172
 NBasis=    86 RedAO= T EigKep=  1.76D-03  NBF=    86
 NBsUse=    86 1.00D-06 EigRej= -1.00D+00 NBFU=    86
 Precomputing XC quadrature grid using
 IXCGrd= 4 IRadAn=           5 IRanWt=          -1 IRanGd=           0 AccXCQ= 0.00D+00.
 Generated NRdTot=       0 NPtTot=           0 NUsed=           0 NTot=          32
 NSgBfM=    96    96    96    96    96 MxSgAt=     6 MxSgA2=     6.
 Leave Link  302 at Tue Dec  5 22:56:49 2023, MaxMem=   671088640 cpu:              23.8 elap:               1.3
 (Enter /usr/g16/l303.exe)
 DipDrv:  MaxL=1.
 Leave Link  303 at Tue Dec  5 22:56:50 2023, MaxMem=   671088640 cpu:              10.1 elap:               0.6
 (Enter /usr/g16/l308.exe)
 Leave Link  308 at Tue Dec  5 22:56:51 2023, MaxMem=   671088640 cpu:              15.9 elap:               1.0
 (Enter /usr/g16/l401.exe)
 ExpMin= 9.52D-02 ExpMax= 2.70D+04 ExpMxC= 9.22D+02 IAcc=3 IRadAn=         5 AccDes= 0.00D+00
 Harris functional with IExCor= 1009 and IRadAn=       5 diagonalized for initial guess.
 HarFok:  IExCor= 1009 AccDes= 0.00D+00 IRadAn=         5 IDoV= 1 UseB2=F ITyADJ=14
 ICtDFT=  3500011 ScaDFX=  1.000000  1.000000  1.000000  1.000000
 FoFCou: FMM=F IPFlag=           0 FMFlag=      100000 FMFlg1=           0
         NFxFlg=           0 DoJE=T BraDBF=F KetDBF=T FulRan=T
         wScrn=  0.000000 ICntrl=       500 IOpCl=  0 I1Cent=   200000004 NGrid=           0
         NMat0=    1 NMatS0=      1 NMatT0=    0 NMatD0=    1 NMtDS0=    0 NMtDT0=    0
 Petite list used in FoFCou.
 Harris En= -115.688055715931    
 JPrj=0 DoOrth=F DoCkMO=F.
 Leave Link  401 at Tue Dec  5 22:56:53 2023, MaxMem=   671088640 cpu:              37.2 elap:               2.1
 (Enter /usr/g16/l502.exe)
 Keep R1 ints in memory in canonical form, NReq=29106393.
 FoFCou: FMM=F IPFlag=           0 FMFlag=           0 FMFlg1=           0
         NFxFlg=           0 DoJE=F BraDBF=F KetDBF=F FulRan=T
         wScrn=  0.000000 ICntrl=       600 IOpCl=  0 I1Cent=           0 NGrid=           0
         NMat0=    1 NMatS0=   3741 NMatT0=    0 NMatD0=    1 NMtDS0=    0 NMtDT0=    0
 Symmetry not used in FoFCou.
 Two-electron integral symmetry not used.
 Closed shell SCF:
 Using DIIS extrapolation, IDIIS=  1040.
 NGot=   671088640 LenX=   664067435 LenY=   664057778
 Requested convergence on RMS density matrix=1.00D-08 within 128 cycles.
 Requested convergence on MAX density matrix=1.00D-06.
 Requested convergence on             energy=1.00D-06.
 No special actions if energy rises.
 Integral accuracy reduced to 1.0D-05 until final iterations.

 Cycle   1  Pass 0  IDiag  1:
 E= -115.558039072923    
 DIIS: error= 3.49D-02 at cycle   1 NSaved=   1.
 NSaved= 1 IEnMin= 1 EnMin= -115.558039072923     IErMin= 1 ErrMin= 3.49D-02
 ErrMax= 3.49D-02  0.00D+00 EMaxC= 1.00D-01 BMatC= 9.51D-02 BMatP= 9.51D-02
 IDIUse=3 WtCom= 6.51D-01 WtEn= 3.49D-01
 Coeff-Com:  0.100D+01
 Coeff-En:   0.100D+01
 Coeff:      0.100D+01
 Gap=     0.239 Goal=   None    Shift=    0.000
 GapD=    0.239 DampG=1.000 DampE=0.500 DampFc=0.5000 IDamp=-1.
 Damping current iteration by 5.00D-01
 RMSDP=5.20D-03 MaxDP=8.44D-02              OVMax= 1.50D-01

 Cycle   2  Pass 0  IDiag  1:
 E= -115.588199797524     Delta-E=       -0.030160724601 Rises=F Damp=T
 DIIS: error= 9.80D-03 at cycle   2 NSaved=   2.
 NSaved= 2 IEnMin= 2 EnMin= -115.588199797524     IErMin= 2 ErrMin= 9.80D-03
 ErrMax= 9.80D-03  0.00D+00 EMaxC= 1.00D-01 BMatC= 6.94D-03 BMatP= 9.51D-02
 IDIUse=3 WtCom= 9.02D-01 WtEn= 9.80D-02
 Coeff-Com:  0.131D+00 0.869D+00
 Coeff-En:   0.216D+00 0.784D+00
 Coeff:      0.139D+00 0.861D+00
 Gap=     0.328 Goal=   None    Shift=    0.000
 RMSDP=8.47D-04 MaxDP=1.29D-02 DE=-3.02D-02 OVMax= 9.32D-02

 Cycle   3  Pass 0  IDiag  1:
 E= -115.633582276692     Delta-E=       -0.045382479168 Rises=F Damp=F
 DIIS: error= 4.81D-03 at cycle   3 NSaved=   3.
 NSaved= 3 IEnMin= 3 EnMin= -115.633582276692     IErMin= 3 ErrMin= 4.81D-03
 ErrMax= 4.81D-03  0.00D+00 EMaxC= 1.00D-01 BMatC= 1.94D-03 BMatP= 6.94D-03
 IDIUse=3 WtCom= 9.52D-01 WtEn= 4.81D-02
 Coeff-Com:  0.108D-01 0.320D+00 0.669D+00
 Coeff-En:   0.000D+00 0.000D+00 0.100D+01
 Coeff:      0.103D-01 0.304D+00 0.685D+00
 Gap=     0.322 Goal=   None    Shift=    0.000
 RMSDP=3.40D-04 MaxDP=6.27D-03 DE=-4.54D-02 OVMax= 1.45D-02

 Cycle   4  Pass 0  IDiag  1:
 E= -115.634665038943     Delta-E=       -0.001082762251 Rises=F Damp=F
 DIIS: error= 2.62D-03 at cycle   4 NSaved=   4.
 NSaved= 4 IEnMin= 4 EnMin= -115.634665038943     IErMin= 4 ErrMin= 2.62D-03
 ErrMax= 2.62D-03  0.00D+00 EMaxC= 1.00D-01 BMatC= 4.87D-04 BMatP= 1.94D-03
 IDIUse=3 WtCom= 9.74D-01 WtEn= 2.62D-02
 Coeff-Com: -0.579D-02 0.608D-01 0.353D+00 0.592D+00
 Coeff-En:   0.000D+00 0.000D+00 0.197D+00 0.803D+00
 Coeff:     -0.563D-02 0.592D-01 0.349D+00 0.597D+00
 Gap=     0.322 Goal=   None    Shift=    0.000
 RMSDP=1.30D-04 MaxDP=2.45D-03 DE=-1.08D-03 OVMax= 5.53D-03

 Cycle   5  Pass 0  IDiag  1:
 E= -115.635051192021     Delta-E=       -0.000386153078 Rises=F Damp=F
 DIIS: error= 3.24D-04 at cycle   5 NSaved=   5.
 NSaved= 5 IEnMin= 5 EnMin= -115.635051192021     IErMin= 5 ErrMin= 3.24D-04
 ErrMax= 3.24D-04  0.00D+00 EMaxC= 1.00D-01 BMatC= 6.35D-06 BMatP= 4.87D-04
 IDIUse=3 WtCom= 9.97D-01 WtEn= 3.24D-03
 Coeff-Com: -0.168D-02 0.210D-02 0.753D-01 0.182D+00 0.742D+00
 Coeff-En:   0.000D+00 0.000D+00 0.000D+00 0.000D+00 0.100D+01
 Coeff:     -0.168D-02 0.209D-02 0.751D-01 0.181D+00 0.743D+00
 Gap=     0.322 Goal=   None    Shift=    0.000
 RMSDP=1.56D-05 MaxDP=2.00D-04 DE=-3.86D-04 OVMax= 5.68D-04

 Cycle   6  Pass 0  IDiag  1:
 E= -115.635055830107     Delta-E=       -0.000004638085 Rises=F Damp=F
 DIIS: error= 1.51D-05 at cycle   6 NSaved=   6.
 NSaved= 6 IEnMin= 6 EnMin= -115.635055830107     IErMin= 6 ErrMin= 1.51D-05
 ErrMax= 1.51D-05  0.00D+00 EMaxC= 1.00D-01 BMatC= 9.63D-09 BMatP= 6.35D-06
 IDIUse=1 WtCom= 1.00D+00 WtEn= 0.00D+00
 Coeff-Com:  0.157D-03-0.704D-03-0.134D-02-0.128D-02 0.184D-01 0.985D+00
 Coeff:      0.157D-03-0.704D-03-0.134D-02-0.128D-02 0.184D-01 0.985D+00
 Gap=     0.322 Goal=   None    Shift=    0.000
 RMSDP=1.58D-06 MaxDP=2.62D-05 DE=-4.64D-06 OVMax= 4.34D-05

 Initial convergence to 1.0D-05 achieved.  Increase integral accuracy.
 Cycle   7  Pass 1  IDiag  1:
 E= -115.635055577331     Delta-E=        0.000000252775 Rises=F Damp=F
 DIIS: error= 4.59D-06 at cycle   1 NSaved=   1.
 NSaved= 1 IEnMin= 1 EnMin= -115.635055577331     IErMin= 1 ErrMin= 4.59D-06
 ErrMax= 4.59D-06  0.00D+00 EMaxC= 1.00D-01 BMatC= 7.04D-10 BMatP= 7.04D-10
 IDIUse=1 WtCom= 1.00D+00 WtEn= 0.00D+00
 Coeff-Com:  0.100D+01
 Coeff:      0.100D+01
 Gap=     0.322 Goal=   None    Shift=    0.000
 RMSDP=1.58D-06 MaxDP=2.62D-05 DE= 2.53D-07 OVMax= 1.48D-05

 Cycle   8  Pass 1  IDiag  1:
 E= -115.635055577611     Delta-E=       -0.000000000279 Rises=F Damp=F
 DIIS: error= 2.60D-06 at cycle   2 NSaved=   2.
 NSaved= 2 IEnMin= 2 EnMin= -115.635055577611     IErMin= 2 ErrMin= 2.60D-06
 ErrMax= 2.60D-06  0.00D+00 EMaxC= 1.00D-01 BMatC= 5.80D-10 BMatP= 7.04D-10
 IDIUse=1 WtCom= 1.00D+00 WtEn= 0.00D+00
 Coeff-Com:  0.473D+00 0.527D+00
 Coeff:      0.473D+00 0.527D+00
 Gap=     0.322 Goal=   None    Shift=    0.000
 RMSDP=1.74D-07 MaxDP=2.77D-06 DE=-2.79D-10 OVMax= 7.20D-06

 Cycle   9  Pass 1  IDiag  1:
 E= -115.635055578036     Delta-E=       -0.000000000426 Rises=F Damp=F
 DIIS: error= 9.47D-07 at cycle   3 NSaved=   3.
 NSaved= 3 IEnMin= 3 EnMin= -115.635055578036     IErMin= 3 ErrMin= 9.47D-07
 ErrMax= 9.47D-07  0.00D+00 EMaxC= 1.00D-01 BMatC= 5.50D-11 BMatP= 5.80D-10
 IDIUse=1 WtCom= 1.00D+00 WtEn= 0.00D+00
 Coeff-Com:  0.165D+00 0.273D+00 0.562D+00
 Coeff:      0.165D+00 0.273D+00 0.562D+00
 Gap=     0.322 Goal=   None    Shift=    0.000
 RMSDP=4.58D-08 MaxDP=8.39D-07 DE=-4.26D-10 OVMax= 1.66D-06

 Cycle  10  Pass 1  IDiag  1:
 E= -115.635055578072     Delta-E=       -0.000000000035 Rises=F Damp=F
 DIIS: error= 1.58D-07 at cycle   4 NSaved=   4.
 NSaved= 4 IEnMin= 4 EnMin= -115.635055578072     IErMin= 4 ErrMin= 1.58D-07
 ErrMax= 1.58D-07  0.00D+00 EMaxC= 1.00D-01 BMatC= 1.10D-12 BMatP= 5.50D-11
 IDIUse=1 WtCom= 1.00D+00 WtEn= 0.00D+00
 Coeff-Com:  0.598D-02 0.305D-01 0.147D+00 0.817D+00
 Coeff:      0.598D-02 0.305D-01 0.147D+00 0.817D+00
 Gap=     0.322 Goal=   None    Shift=    0.000
 RMSDP=1.19D-08 MaxDP=1.78D-07 DE=-3.54D-11 OVMax= 3.82D-07

 Cycle  11  Pass 1  IDiag  1:
 E= -115.635055578072     Delta-E=       -0.000000000001 Rises=F Damp=F
 DIIS: error= 5.88D-08 at cycle   5 NSaved=   5.
 NSaved= 5 IEnMin= 5 EnMin= -115.635055578072     IErMin= 5 ErrMin= 5.88D-08
 ErrMax= 5.88D-08  0.00D+00 EMaxC= 1.00D-01 BMatC= 2.04D-13 BMatP= 1.10D-12
 IDIUse=1 WtCom= 1.00D+00 WtEn= 0.00D+00
 Coeff-Com: -0.693D-02-0.140D-02 0.322D-01 0.381D+00 0.595D+00
 Coeff:     -0.693D-02-0.140D-02 0.322D-01 0.381D+00 0.595D+00
 Gap=     0.322 Goal=   None    Shift=    0.000
 RMSDP=3.59D-09 MaxDP=6.85D-08 DE=-5.40D-13 OVMax= 1.41D-07

 SCF Done:  E(RPBE1PBE) =  -115.635055578     A.U. after   11 cycles
            NFock= 11  Conv=0.36D-08     -V/T= 2.0050
 KE= 1.150566988162D+02 PE=-3.521692133878D+02 EE= 8.113208311131D+01
 Leave Link  502 at Tue Dec  5 22:57:05 2023, MaxMem=   671088640 cpu:             215.3 elap:              12.2
 (Enter /usr/g16/l801.exe)
 DoSCS=F DFT=T ScalE2(SS,OS)=  1.000000  1.000000
 ExpMin= 9.52D-02 ExpMax= 2.70D+04 ExpMxC= 9.22D+02 IAcc=3 IRadAn=         5 AccDes= 0.00D+00
 HarFok:  IExCor=  205 AccDes= 0.00D+00 IRadAn=         5 IDoV=-2 UseB2=F ITyADJ=14
 ICtDFT= 12500011 ScaDFX=  1.000000  1.000000  1.000000  1.000000
 Largest valence mixing into a core orbital is  6.55D-05
 Largest core mixing into a valence orbital is  9.28D-06
 Range of M.O.s used for correlation:     3    86
 NBasis=    86 NAE=     9 NBE=     9 NFC=     2 NFV=     0
 NROrb=     84 NOA=     7 NOB=     7 NVA=    77 NVB=    77

 **** Warning!!: The largest alpha MO coefficient is  0.10043064D+02

 Leave Link  801 at Tue Dec  5 22:57:07 2023, MaxMem=   671088640 cpu:              18.8 elap:               1.2
 (Enter /usr/g16/l914.exe)
 RHF ground state
 Keep R1, R2, and R3 ints in memory in canonical form, NReq=126080251.
 FoFCou: FMM=F IPFlag=           0 FMFlag=           0 FMFlg1=           0
         NFxFlg=           0 DoJE=F BraDBF=F KetDBF=F FulRan=T
         wScrn=  0.000000 ICntrl=       600 IOpCl=  0 I1Cent=           0 NGrid=           0
         NMat0=    1 NMatS0=   3741 NMatT0=    0 NMatD0=    1 NMtDS0=    0 NMtDT0=    0
 Symmetry not used in FoFCou.
 Two-electron integral symmetry not used.
 MDV=   671088640 DFT=T DoStab=F Mixed=T DoRPA=T DoScal=F NonHer=T
 Making orbital integer symmetry assigments:
 Orbital symmetries:
       Occupied  (A) (A) (A) (A) (A) (A) (A) (A) (A)
       Virtual   (A) (A) (A) (A) (A) (A) (A) (A) (A) (A) (A) (A)
                 (A) (A) (A) (A) (A) (A) (A) (A) (A) (A) (A) (A)
                 (A) (A) (A) (A) (A) (A) (A) (A) (A) (A) (A) (A)
                 (A) (A) (A) (A) (A) (A) (A) (A) (A) (A) (A) (A)
                 (A) (A) (A) (A) (A) (A) (A) (A) (A) (A) (A) (A)
                 (A) (A) (A) (A) (A) (A) (A) (A) (A) (A) (A) (A)
                 (A) (A) (A) (A) (A)
    80 initial guesses have been made.
 Convergence on wavefunction:    0.001000000000000
 Davidson Disk Diagonalization:  ConvIn= 1.00D-03 SkipCon=T Conv= 1.00D-03.
 Max sub-space:  2000 roots to seek:    80 dimension of matrix:         1078
 Iteration     1 Dimension    80 NMult     0 NNew     80
 CISAX will form    80 AO SS matrices at one time.
 NMat=    80 NSing=    80 JSym2X= 0.
 New state      6 was old state      7
 New state      7 was old state      6
 New state      8 was old state     10
 New state     10 was old state      8
 New state     18 was old state     19
 New state     19 was old state     18
 New state     20 was old state     22
 Excitation Energies [eV] at current iteration:
 Root      1 :     6.978582051810376
 Root      2 :     8.615033053795962
 Root      3 :     8.814849415608112
 Root      4 :     9.665199270642072
 Root      5 :     9.945366189620511
 Root      6 :    10.001874145207970
 Root      7 :    10.283540008394210
 Root      8 :    11.357824208203090
 Root      9 :    11.383783323212320
 Root     10 :    11.511114319942580
 Root     11 :    11.779177721406010
 Root     12 :    11.903094569317290
 Root     13 :    12.462682688970170
 Root     14 :    12.659184503440480
 Root     15 :    12.847670188378600
 Root     16 :    13.134499341983210
 Root     17 :    13.706858911747800
 Root     18 :    13.824588528869200
 Root     19 :    14.085027497425510
 Root     20 :    14.106841652015600
 Root     21 :    14.213818016965960
 Root     22 :    14.284946871842820
 Root     23 :    14.382117143563200
 Root     24 :    14.434205838881090
 Root     25 :    14.889998355291830
 Root     26 :    14.989477587921750
 Root     27 :    15.085108765785020
 Root     28 :    16.000802382921010
 Root     29 :    16.155126585843790
 Root     30 :    16.379234483357100
 Root     31 :    16.478793729502640
 Root     32 :    16.512845613298790
 Root     33 :    16.736151263048520
 Root     34 :    16.853841204185350
 Root     35 :    17.034806971407490
 Root     36 :    17.059064757403740
 Root     37 :    17.432921975297720
 Root     38 :    17.921523949407570
 Root     39 :    18.359227396510900
 Root     40 :    18.375429354631620
 Root     41 :    18.434447013226100
 Root     42 :    18.789844735844910
 Root     43 :    18.893934410479640
 Root     44 :    19.051782491478340
 Root     45 :    19.086292926784830
 Root     46 :    19.226277123079080
 Root     47 :    19.298068472824750
 Root     48 :    19.899134510861740
 Root     49 :    20.007458527133370
 Root     50 :    20.028621450321760
 Root     51 :    20.353027014535620
 Root     52 :    20.399307420710870
 Root     53 :    20.634212452874890
 Root     54 :    20.790989468675760
 Root     55 :    20.922715907081090
 Root     56 :    20.984351275533090
 Root     57 :    21.115439188739140
 Root     58 :    21.223381632782370
 Root     59 :    21.313419107322690
 Root     60 :    21.451372186842800
 Root     61 :    21.597553635614840
 Root     62 :    21.667205561108710
 Root     63 :    22.128325505416280
 Root     64 :    22.509302339133450
 Root     65 :    22.522197708130840
 Root     66 :    22.745454376922770
 Root     67 :    23.126929656086930
 Root     68 :    23.251282025429790
 Root     69 :    23.282844183022140
 Root     70 :    23.508789698244480
 Root     71 :    23.579544279284940
 Root     72 :    23.742309434080250
 Root     73 :    23.771842706966270
 Root     74 :    23.992372746452570
 Root     75 :    24.108655618828850
 Root     76 :    24.809197911255920
 Root     77 :    24.890419353306490
 Root     78 :    25.320838790084520
 Root     79 :    26.551510625134930
 Root     80 :    28.230816812844040
 Iteration     2 Dimension   120 NMult    80 NNew     40
 CISAX will form    40 AO SS matrices at one time.
 NMat=    40 NSing=    40 JSym2X= 0.
 Root      1 not converged, maximum delta is    0.007357541666829
 Root      2 not converged, maximum delta is    0.008489479218462
 Root      3 not converged, maximum delta is    0.010765565645605
 Root      4 not converged, maximum delta is    0.014744605968359
 Root      5 not converged, maximum delta is    0.012978629817062
 Root      6 not converged, maximum delta is    0.015173255085101
 Root      7 not converged, maximum delta is    0.011680894501461
 Root      8 not converged, maximum delta is    0.047248350261637
 Root      9 not converged, maximum delta is    0.007404912206002
 Root     10 not converged, maximum delta is    0.047601484805458
 Root     11 not converged, maximum delta is    0.004684311244590
 Root     12 not converged, maximum delta is    0.014462294038031
 Root     13 not converged, maximum delta is    0.007417070475310
 Root     14 not converged, maximum delta is    0.039489320068166
 Root     15 not converged, maximum delta is    0.036814791057137
 Root     16 not converged, maximum delta is    0.011100388787596
 Root     17 not converged, maximum delta is    0.028569743596459
 Root     18 not converged, maximum delta is    0.011524351044167
 Root     19 not converged, maximum delta is    0.064127509647017
 Root     20 not converged, maximum delta is    0.007875479654869
 Excitation Energies [eV] at current iteration:
 Root      1 :     6.949395681019640   Change is   -0.029186370790736
 Root      2 :     8.592899070617095   Change is   -0.022133983178865
 Root      3 :     8.771889961901865   Change is   -0.042959453706248
 Root      4 :     9.649526017700220   Change is   -0.015673252941853
 Root      5 :     9.919660476488113   Change is   -0.025705713132396
 Root      6 :     9.979472684745748   Change is   -0.022401460462224
 Root      7 :    10.251180427012860   Change is   -0.032359581381349
 Root      8 :    11.310164069682730   Change is   -0.047660138520362
 Root      9 :    11.369861305449370   Change is   -0.013922017762945
 Root     10 :    11.472141928742600   Change is   -0.038972391199979
 Root     11 :    11.767891564083040   Change is   -0.011286157322965
 Root     12 :    11.856537432502780   Change is   -0.046557136814512
 Root     13 :    12.453208264526180   Change is   -0.009474424443990
 Root     14 :    12.634595089992160   Change is   -0.024589413448320
 Root     15 :    12.814133844386750   Change is   -0.033536343991849
 Root     16 :    13.110774481608840   Change is   -0.023724860374378
 Root     17 :    13.652502606531580   Change is   -0.054356305216218
 Root     18 :    13.812577241320900   Change is   -0.012011287548303
 Root     19 :    14.042774464224940   Change is   -0.042253033200562
 Root     20 :    14.096792362060000   Change is   -0.010049289955608
 Iteration     3 Dimension   160 NMult   120 NNew     40
 CISAX will form    40 AO SS matrices at one time.
 NMat=    40 NSing=    40 JSym2X= 0.
 Root      1 has converged.
 Root      2 has converged.
 Root      3 has converged.
 Root      4 has converged.
 Root      5 has converged.
 Root      6 has converged.
 Root      7 has converged.
 Root      8 not converged, maximum delta is    0.001052149041895
 Root      9 has converged.
 Root     10 has converged.
 Root     11 has converged.
 Root     12 has converged.
 Root     13 has converged.
 Root     14 has converged.
 Root     15 has converged.
 Root     16 has converged.
 Root     17 not converged, maximum delta is    0.001444057694149
 Root     18 has converged.
 Root     19 not converged, maximum delta is    0.002821150122259
 Root     20 has converged.
 Excitation Energies [eV] at current iteration:
 Root      1 :     6.949255691344246   Change is   -0.000139989675394
 Root      2 :     8.592714954643922   Change is   -0.000184115973173
 Root      3 :     8.771404576263793   Change is   -0.000485385638071
 Root      4 :     9.649411975227295   Change is   -0.000114042472925
 Root      5 :     9.919441263200762   Change is   -0.000219213287353
 Root      6 :     9.979292943425072   Change is   -0.000179741320675
 Root      7 :    10.250765242516230   Change is   -0.000415184496624
 Root      8 :    11.309509593411100   Change is   -0.000654476271627
 Root      9 :    11.369739731878930   Change is   -0.000121573570442
 Root     10 :    11.471652108002880   Change is   -0.000489820739723
 Root     11 :    11.767754278427930   Change is   -0.000137285655112
 Root     12 :    11.855965473481370   Change is   -0.000571959021408
 Root     13 :    12.453141983283610   Change is   -0.000066281242569
 Root     14 :    12.634291860766000   Change is   -0.000303229226162
 Root     15 :    12.813603312513980   Change is   -0.000530531872768
 Root     16 :    13.110435454633460   Change is   -0.000339026975374
 Root     17 :    13.651464619104300   Change is   -0.001037987427286
 Root     18 :    13.812474768787890   Change is   -0.000102472533010
 Root     19 :    14.041918981151610   Change is   -0.000855483073337
 Root     20 :    14.096709123908770   Change is   -0.000083238151223
 Iteration     4 Dimension   166 NMult   160 NNew      6
 CISAX will form     6 AO SS matrices at one time.
 NMat=     6 NSing=     6 JSym2X= 0.
 Root      1 has converged.
 Root      2 has converged.
 Root      3 has converged.
 Root      4 has converged.
 Root      5 has converged.
 Root      6 has converged.
 Root      7 has converged.
 Root      8 has converged.
 Root      9 has converged.
 Root     10 has converged.
 Root     11 has converged.
 Root     12 has converged.
 Root     13 has converged.
 Root     14 has converged.
 Root     15 has converged.
 Root     16 has converged.
 Root     17 has converged.
 Root     18 has converged.
 Root     19 has converged.
 Root     20 has converged.
 Excitation Energies [eV] at current iteration:
 Root      1 :     6.949255691340508   Change is   -0.000000000003737
 Root      2 :     8.592714954640240   Change is   -0.000000000003683
 Root      3 :     8.771401465349838   Change is   -0.000003110913955
 Root      4 :     9.649411975224313   Change is   -0.000000000002982
 Root      5 :     9.919440815201929   Change is   -0.000000447998832
 Root      6 :     9.979292943412648   Change is   -0.000000000012423
 Root      7 :    10.250764636091620   Change is   -0.000000606424611
 Root      8 :    11.309493917763680   Change is   -0.000015675647426
 Root      9 :    11.369739731876810   Change is   -0.000000000002125
 Root     10 :    11.471648436293410   Change is   -0.000003671709466
 Root     11 :    11.767754278425240   Change is   -0.000000000002689
 Root     12 :    11.855962324167660   Change is   -0.000003149313712
 Root     13 :    12.453141983282340   Change is   -0.000000000001269
 Root     14 :    12.634291379686060   Change is   -0.000000481079935
 Root     15 :    12.813602098631540   Change is   -0.000001213882437
 Root     16 :    13.110435454630990   Change is   -0.000000000002476
 Root     17 :    13.651432053704570   Change is   -0.000032565399727
 Root     18 :    13.812474768784290   Change is   -0.000000000003607
 Root     19 :    14.041888771282620   Change is   -0.000030209868984
 Root     20 :    14.096709123863720   Change is   -0.000000000045050
 Convergence achieved on expansion vectors.
 ***********************************************************************
 Excited states from <AA,BB:AA,BB> singles matrix:
 ***********************************************************************
 
 1PDM for each excited state written to RWF  633
 Ground to excited state transition densities written to RWF  633
 Ground to excited state transition electric dipole moments (Au):
       state          X           Y           Z        Dip. S.      Osc.
         1         0.0000      0.0000     -0.0165      0.0003      0.0000
         2         0.0000      0.0000     -0.5357      0.2870      0.0604
         3        -0.0848      0.0661      0.0000      0.0116      0.0025
         4         0.0000      0.0000     -0.2384      0.0568      0.0134
         5         0.4410      0.2693     -0.0001      0.2670      0.0649
         6         0.0001      0.0001      0.2302      0.0530      0.0130
         7        -0.1535     -0.7432      0.0000      0.5758      0.1446
         8         0.0866      0.2647     -0.0000      0.0776      0.0215
         9        -0.0000      0.0000      0.4781      0.2286      0.0637
        10        -0.7696      0.1569     -0.0000      0.6170      0.1734
        11         0.0000     -0.0000      0.5645      0.3186      0.0919
        12         0.0320     -0.1308     -0.0000      0.0181      0.0053
        13         0.0000      0.0000      0.0825      0.0068      0.0021
        14        -0.2489      0.2031     -0.0000      0.1032      0.0319
        15        -0.6573      0.3646     -0.0000      0.5650      0.1774
        16        -0.0000      0.0000      0.5040      0.2540      0.0816
        17        -0.3796      0.4239     -0.0000      0.3237      0.1083
        18         0.0000     -0.0000     -0.0039      0.0000      0.0000
        19         0.1393     -0.6583     -0.0000      0.4527      0.1558
        20         0.0000     -0.0000      0.1558      0.0243      0.0084
 Ground to excited state transition velocity dipole moments (Au):
       state          X           Y           Z        Dip. S.      Osc.
         1        -0.0000     -0.0000     -0.0192      0.0004      0.0010
         2        -0.0000     -0.0000      0.1911      0.0365      0.0771
         3         0.0219     -0.0360     -0.0000      0.0018      0.0037
         4        -0.0000     -0.0000      0.0825      0.0068      0.0128
         5        -0.1804     -0.0929      0.0000      0.0412      0.0753
         6        -0.0000     -0.0000     -0.0800      0.0064      0.0116
         7         0.0709      0.2931     -0.0000      0.0910      0.1610
         8        -0.0344     -0.1116      0.0000      0.0136      0.0219
         9         0.0000     -0.0000     -0.2027      0.0411      0.0655
        10         0.3346     -0.0600      0.0000      0.1155      0.1827
        11        -0.0000      0.0000     -0.2496      0.0623      0.0961
        12        -0.0164      0.0515      0.0000      0.0029      0.0045
        13        -0.0000      0.0000     -0.0457      0.0021      0.0030
        14         0.1004     -0.1100      0.0000      0.0222      0.0319
        15         0.3187     -0.1659      0.0000      0.1291      0.1828
        16         0.0000     -0.0000     -0.2393      0.0573      0.0792
        17         0.1877     -0.2173      0.0000      0.0824      0.1095
        18        -0.0000      0.0000      0.0048      0.0000      0.0000
        19        -0.0773      0.3540      0.0000      0.1313      0.1696
        20        -0.0000      0.0000     -0.0740      0.0055      0.0070
 Ground to excited state transition magnetic dipole moments (Au):
       state          X           Y           Z
         1         0.1329      0.7062      0.0000
         2        -0.0950      0.2629      0.0000
         3        -0.0000      0.0000     -1.1034
         4        -0.1799     -0.2329      0.0000
         5        -0.0001      0.0002      0.4865
         6         0.5161     -0.8469      0.0001
         7        -0.0000     -0.0000     -0.1730
         8         0.0000      0.0000      0.6289
         9        -0.4524     -0.3708      0.0001
        10         0.0000      0.0000      0.5670
        11        -0.0389     -0.4833     -0.0000
        12        -0.0000      0.0000     -0.2915
        13         0.3807     -0.2968      0.0000
        14         0.0000     -0.0000      0.4079
        15        -0.0000      0.0000     -0.0582
        16        -0.0118     -0.0520      0.0000
        17         0.0000     -0.0000     -0.0857
        18         0.2605      0.4708      0.0000
        19        -0.0000     -0.0000      0.1489
        20         0.5516      0.2483      0.0000
 Ground to excited state transition velocity quadrupole moments (Au):
       state          XX          YY          ZZ          XY          XZ          YZ
         1         0.0000      0.0000      0.0000      0.0000     -0.2986     -0.0478
         2         0.0000      0.0000      0.0000      0.0000     -0.3971     -0.2217
         3         0.0598      0.1580     -0.2104     -0.5020     -0.0000      0.0000
         4         0.0000      0.0000      0.0000      0.0000     -0.3050     -0.0373
         5         0.2409      0.1588      0.4462      0.3634     -0.0000     -0.0001
         6         0.0001      0.0000      0.0001      0.0001      0.2318      0.2276
         7         0.0171      0.0286     -0.3267     -0.5272      0.0000      0.0000
         8        -0.2083     -0.1537      0.0333      0.0101     -0.0000     -0.0000
         9        -0.0000     -0.0000     -0.0000      0.0000      0.5077      0.3213
        10        -0.2121     -0.3361     -0.1516      0.0271     -0.0000     -0.0000
        11         0.0000      0.0000      0.0000     -0.0000      0.0424      0.3189
        12         0.3242      0.2652      0.3000     -0.4887      0.0000     -0.0000
        13         0.0000      0.0000      0.0000     -0.0000      0.4838     -0.1044
        14        -0.4275      0.0191      0.0160      0.4671      0.0000     -0.0000
        15        -0.1184     -0.4337     -0.0585      0.3175     -0.0000     -0.0000
        16        -0.0000     -0.0000     -0.0000      0.0000      0.7394      0.2350
        17         0.1581      0.5900     -0.0487     -0.7486     -0.0000      0.0000
        18         0.0000      0.0000     -0.0000     -0.0000      0.0474      0.0501
        19         0.2675      0.5962     -0.4953     -0.4651     -0.0000     -0.0000
        20         0.0000      0.0000     -0.0001     -0.0000      0.1255      0.2666
 <0|del|b> * <b|rxdel|0> + <0|del|b> * <b|delr+rdel|0>
 Rotatory Strengths (R) in cgs (10**-40 erg-esu-cm/Gauss)
       state          XX          YY          ZZ    R(velocity)    E-M Angle
         1        -0.0016     -0.0003     -0.0006     -0.0008       90.00
         2         0.0028      0.0009      0.0000      0.0012       90.00
         3         0.0009      0.0004     -0.0001      0.0004       90.00
         4         0.0018      0.0012      0.0021      0.0017       90.00
         5        -0.0080      0.0338     -0.0030      0.0076       90.00
         6         0.0074     -0.0333      0.0010     -0.0083       90.00
         7        -0.0005     -0.0005      0.0007     -0.0001       90.00
         8         0.0022      0.0041     -0.0014      0.0016       90.00
         9        -0.0075     -0.0081     -0.0138     -0.0098       90.00
        10         0.0019      0.0055      0.0113      0.0062       90.00
        11         0.0047     -0.0060      0.0002     -0.0004       90.00
        12        -0.0082      0.0025      0.0014     -0.0014       90.00
        13        -0.0000     -0.0006     -0.0010     -0.0005       90.00
        14         0.0010      0.0008      0.0015      0.0011       90.00
        15        -0.0026     -0.0051      0.0040     -0.0012       90.00
        16         0.0042      0.0032     -0.0075     -0.0000       90.00
        17         0.0001      0.0016      0.0032      0.0016       90.00
        18         0.0045     -0.0029      0.0036      0.0017       90.00
        19        -0.0027      0.0077     -0.0138     -0.0030       90.00
        20         0.0015     -0.0031      0.0058      0.0014       90.00
 1/2[<0|r|b>*<b|rxdel|0> + (<0|rxdel|b>*<b|r|0>)*]
 Rotatory Strengths (R) in cgs (10**-40 erg-esu-cm/Gauss)
       state          XX          YY          ZZ     R(length)
         1        -0.0002     -0.0019      0.0001     -0.0007
         2         0.0006     -0.0017      0.0043      0.0011
         3        -0.0002     -0.0002      0.0016      0.0004
         4         0.0019      0.0012      0.0019      0.0017
         5         0.0383     -0.0399      0.0183      0.0056
         6        -0.0389      0.0381     -0.0186     -0.0065
         7        -0.0005     -0.0002      0.0006     -0.0000
         8        -0.0003     -0.0029      0.0079      0.0016
         9        -0.0149      0.0045     -0.0180     -0.0095
        10         0.0122     -0.0009      0.0069      0.0061
        11         0.0005     -0.0055      0.0033     -0.0005
        12         0.0002      0.0024     -0.0065     -0.0013
        13        -0.0016      0.0003     -0.0000     -0.0005
        14         0.0027      0.0004      0.0007      0.0012
        15        -0.0010     -0.0021     -0.0007     -0.0013
        16        -0.0003      0.0007     -0.0005     -0.0000
        17         0.0025      0.0024     -0.0000      0.0016
        18        -0.0050      0.0101      0.0000      0.0017
        19         0.0044     -0.0150      0.0021     -0.0028
        20        -0.0010      0.0076     -0.0029      0.0012
  1/2[<0|del|b>*<b|r|0> + (<0|r|b>*<b|del|0>)*] (Au)
       state          X           Y           Z        Dip. S.   Osc.(frdel)
         1        -0.0000     -0.0000      0.0003     -0.0003     -0.0002
         2        -0.0000     -0.0000     -0.1024      0.1024      0.0682
         3        -0.0019     -0.0024     -0.0000      0.0042      0.0028
         4        -0.0000     -0.0000     -0.0197      0.0197      0.0131
         5        -0.0795     -0.0250     -0.0000      0.1046      0.0697
         6        -0.0000     -0.0000     -0.0184      0.0184      0.0123
         7        -0.0109     -0.2178     -0.0000      0.2287      0.1525
         8        -0.0030     -0.0295     -0.0000      0.0325      0.0217
         9        -0.0000     -0.0000     -0.0969      0.0969      0.0646
        10        -0.2575     -0.0094     -0.0000      0.2669      0.1779
        11        -0.0000     -0.0000     -0.1409      0.1409      0.0939
        12        -0.0005     -0.0067     -0.0000      0.0073      0.0048
        13        -0.0000      0.0000     -0.0038      0.0038      0.0025
        14        -0.0250     -0.0223     -0.0000      0.0473      0.0316
        15        -0.2095     -0.0605     -0.0000      0.2700      0.1800
        16        -0.0000     -0.0000     -0.1206      0.1206      0.0804
        17        -0.0712     -0.0921     -0.0000      0.1633      0.1089
        18        -0.0000     -0.0000     -0.0000      0.0000      0.0000
        19        -0.0108     -0.2331     -0.0000      0.2438      0.1625
        20        -0.0000     -0.0000     -0.0115      0.0115      0.0077

 Excitation energies and oscillator strengths:
 
 Excited State   1:      Singlet-A      6.9493 eV  178.41 nm  f=0.0000  <S**2>=0.000
       3 -> 13         0.00209
       3 -> 16         0.00104
       3 -> 20        -0.00021
       3 -> 23        -0.00255
       3 -> 26        -0.00078
       3 -> 29        -0.00143
       3 -> 32        -0.00151
       3 -> 37         0.00022
       3 -> 39         0.00042
       3 -> 42         0.00073
       3 -> 46        -0.00020
       3 -> 49        -0.00079
       3 -> 51        -0.00084
       3 -> 53         0.00019
       3 -> 57        -0.00028
       3 -> 59        -0.00017
       3 -> 66        -0.00010
       3 -> 73         0.00028
       3 -> 80         0.00055
       4 -> 13        -0.00176
       4 -> 16         0.00106
       4 -> 20         0.00116
       4 -> 23         0.00051
       4 -> 26        -0.00117
       4 -> 29         0.00094
       4 -> 32         0.00090
       4 -> 35        -0.00038
       4 -> 37        -0.00138
       4 -> 39         0.00088
       4 -> 42         0.00012
       4 -> 46         0.00067
       4 -> 49         0.00026
       4 -> 51         0.00025
       4 -> 53        -0.00031
       4 -> 57         0.00053
       4 -> 59        -0.00015
       4 -> 64         0.00020
       4 -> 69         0.00020
       4 -> 75        -0.00040
       4 -> 77        -0.00033
       4 -> 80        -0.00037
       4 -> 82         0.00038
       5 -> 13        -0.00106
       5 -> 16        -0.00215
       5 -> 20        -0.00190
       5 -> 23         0.00058
       5 -> 26        -0.00080
       5 -> 29         0.00185
       5 -> 32         0.00245
       5 -> 35        -0.00014
       5 -> 37        -0.00101
       5 -> 39         0.00061
       5 -> 42         0.00023
       5 -> 46         0.00078
       5 -> 49         0.00033
       5 -> 53         0.00051
       5 -> 62        -0.00017
       5 -> 66        -0.00011
       5 -> 73        -0.00042
       5 -> 75        -0.00081
       5 -> 77        -0.00046
       5 -> 80        -0.00072
       5 -> 82         0.00040
       6 -> 10         0.02254
       6 -> 11        -0.01405
       6 -> 12         0.00068
       6 -> 14         0.01267
       6 -> 15        -0.00689
       6 -> 17        -0.00673
       6 -> 18         0.00082
       6 -> 19         0.00242
       6 -> 21        -0.00083
       6 -> 22         0.00288
       6 -> 24        -0.00072
       6 -> 25         0.00635
       6 -> 27         0.00025
       6 -> 28        -0.00260
       6 -> 30         0.00015
       6 -> 31        -0.00102
       6 -> 36         0.00076
       6 -> 40         0.00103
       6 -> 41         0.00134
       6 -> 43         0.00032
       6 -> 44         0.00069
       6 -> 45         0.00021
       6 -> 47        -0.00061
       6 -> 48        -0.00010
       6 -> 50         0.00030
       6 -> 52        -0.00040
       6 -> 54        -0.00068
       6 -> 55        -0.00063
       6 -> 58        -0.00022
       6 -> 60         0.00045
       6 -> 65         0.00019
       6 -> 68        -0.00047
       6 -> 70        -0.00017
       6 -> 71         0.00014
       6 -> 72        -0.00014
       6 -> 74         0.00048
       6 -> 78        -0.00014
       6 -> 79         0.00060
       6 -> 81        -0.00051
       6 -> 83        -0.00037
       7 -> 13         0.00390
       7 -> 16         0.00027
       7 -> 20         0.00170
       7 -> 23        -0.00084
       7 -> 26         0.00204
       7 -> 29        -0.00033
       7 -> 32         0.00079
       7 -> 35         0.00068
       7 -> 37         0.00105
       7 -> 39        -0.00178
       7 -> 42        -0.00107
       7 -> 46        -0.00064
       7 -> 49         0.00016
       7 -> 51         0.00037
       7 -> 53        -0.00015
       7 -> 57        -0.00055
       7 -> 59        -0.00049
       7 -> 62        -0.00018
       7 -> 64        -0.00019
       7 -> 69        -0.00033
       7 -> 73        -0.00058
       7 -> 75         0.00029
       7 -> 77         0.00045
       7 -> 80        -0.00018
       7 -> 82        -0.00085
       8 -> 13        -0.00317
       8 -> 16         0.00045
       8 -> 20         0.00139
       8 -> 23        -0.00183
       8 -> 26         0.00200
       8 -> 29         0.00146
       8 -> 32         0.00191
       8 -> 35        -0.00038
       8 -> 37        -0.00014
       8 -> 39        -0.00144
       8 -> 42        -0.00055
       8 -> 49         0.00038
       8 -> 51         0.00036
       8 -> 53        -0.00041
       8 -> 57        -0.00060
       8 -> 59        -0.00017
       8 -> 66        -0.00015
       8 -> 73        -0.00082
       8 -> 75        -0.00034
       8 -> 77         0.00014
       8 -> 80        -0.00072
       8 -> 82        -0.00057
       9 -> 10         0.70176
       9 -> 11        -0.07291
       9 -> 12        -0.00890
       9 -> 14         0.00840
       9 -> 15         0.00371
       9 -> 17        -0.01353
       9 -> 18        -0.01104
       9 -> 19         0.01947
       9 -> 21        -0.00550
       9 -> 22         0.00926
       9 -> 24         0.00171
       9 -> 25         0.01711
       9 -> 28        -0.00454
       9 -> 30         0.00034
       9 -> 31        -0.00010
       9 -> 34        -0.00039
       9 -> 36         0.00107
       9 -> 38         0.00084
       9 -> 40         0.00082
       9 -> 41         0.00254
       9 -> 43        -0.00031
       9 -> 44         0.00243
       9 -> 45         0.00093
       9 -> 47        -0.00017
       9 -> 48        -0.00066
       9 -> 50         0.00026
       9 -> 52         0.00034
       9 -> 54        -0.00102
       9 -> 55        -0.00026
       9 -> 56         0.00101
       9 -> 58        -0.00070
       9 -> 60         0.00055
       9 -> 63        -0.00019
       9 -> 65         0.00048
       9 -> 67        -0.00011
       9 -> 68        -0.00068
       9 -> 70         0.00019
       9 -> 72        -0.00043
       9 -> 74         0.00089
       9 -> 76         0.00016
       9 -> 78        -0.00029
       9 -> 79         0.00121
       9 -> 81        -0.00104
       9 -> 83        -0.00074
       9 -> 84        -0.00011
       3 <- 13         0.00034
       3 <- 16         0.00060
       3 <- 20        -0.00019
       3 <- 23        -0.00090
       3 <- 26        -0.00081
       3 <- 29        -0.00083
       3 <- 32        -0.00121
       3 <- 39         0.00045
       3 <- 42         0.00059
       3 <- 46        -0.00044
       3 <- 49        -0.00044
       3 <- 51        -0.00020
       3 <- 57         0.00043
       3 <- 69         0.00010
       3 <- 73         0.00028
       3 <- 80         0.00055
       4 <- 13         0.00074
       4 <- 16         0.00052
       4 <- 20         0.00090
       4 <- 23        -0.00058
       4 <- 26        -0.00074
       4 <- 29         0.00072
       4 <- 32         0.00096
       4 <- 35        -0.00030
       4 <- 37        -0.00093
       4 <- 39         0.00042
       4 <- 42         0.00011
       4 <- 46         0.00079
       4 <- 51        -0.00012
       4 <- 53        -0.00012
       4 <- 59        -0.00025
       4 <- 64         0.00016
       4 <- 69         0.00015
       4 <- 75        -0.00038
       4 <- 77        -0.00027
       4 <- 80        -0.00037
       4 <- 82         0.00033
       5 <- 16         0.00056
       5 <- 20        -0.00161
       5 <- 23        -0.00296
       5 <- 26        -0.00046
       5 <- 29         0.00120
       5 <- 32         0.00259
       5 <- 35        -0.00024
       5 <- 37        -0.00113
       5 <- 39         0.00037
       5 <- 42         0.00034
       5 <- 46         0.00080
       5 <- 51        -0.00055
       5 <- 53         0.00068
       5 <- 57        -0.00050
       5 <- 59        -0.00017
       5 <- 62        -0.00017
       5 <- 66        -0.00023
       5 <- 73        -0.00041
       5 <- 75        -0.00078
       5 <- 77        -0.00042
       5 <- 80        -0.00062
       5 <- 82         0.00037
       6 <- 10        -0.00181
       6 <- 11         0.00272
       6 <- 12         0.00045
       6 <- 14        -0.00032
       6 <- 15         0.00018
       6 <- 17        -0.00065
       6 <- 18         0.00073
       6 <- 19        -0.00179
       6 <- 21        -0.00275
       6 <- 22        -0.00119
       6 <- 24        -0.00070
       6 <- 25        -0.00071
       6 <- 27        -0.00026
       6 <- 28        -0.00064
       6 <- 30         0.00025
       6 <- 31         0.00018
       6 <- 33         0.00021
       6 <- 36         0.00095
       6 <- 38         0.00044
       6 <- 40         0.00107
       6 <- 41         0.00109
       6 <- 44         0.00043
       6 <- 45        -0.00030
       6 <- 47         0.00024
       6 <- 52        -0.00037
       6 <- 56        -0.00030
       6 <- 60         0.00021
       6 <- 61        -0.00020
       6 <- 63         0.00026
       6 <- 65         0.00025
       6 <- 68        -0.00017
       6 <- 70        -0.00019
       6 <- 71         0.00010
       6 <- 72        -0.00012
       6 <- 74         0.00046
       6 <- 78        -0.00013
       6 <- 79         0.00056
       6 <- 81        -0.00040
       6 <- 83        -0.00031
       7 <- 13         0.00116
       7 <- 16         0.00088
       7 <- 20         0.00073
       7 <- 23        -0.00150
       7 <- 26         0.00149
       7 <- 29        -0.00041
       7 <- 32         0.00079
       7 <- 35         0.00051
       7 <- 37         0.00080
       7 <- 39        -0.00127
       7 <- 42        -0.00082
       7 <- 46        -0.00051
       7 <- 51         0.00022
       7 <- 57        -0.00044
       7 <- 59        -0.00034
       7 <- 62        -0.00014
       7 <- 64        -0.00017
       7 <- 69        -0.00030
       7 <- 73        -0.00051
       7 <- 75         0.00027
       7 <- 77         0.00037
       7 <- 80        -0.00013
       7 <- 82        -0.00071
       8 <- 13         0.00064
       8 <- 16         0.00116
       8 <- 23        -0.00341
       8 <- 26         0.00078
       8 <- 29         0.00077
       8 <- 32         0.00171
       8 <- 35        -0.00032
       8 <- 39        -0.00137
       8 <- 46         0.00014
       8 <- 51        -0.00015
       8 <- 53        -0.00020
       8 <- 57        -0.00096
       8 <- 59        -0.00026
       8 <- 66        -0.00018
       8 <- 73        -0.00075
       8 <- 75        -0.00035
       8 <- 77         0.00012
       8 <- 80        -0.00058
       8 <- 82        -0.00047
       9 <- 10        -0.00735
       9 <- 11         0.00345
       9 <- 12         0.00131
       9 <- 14         0.00030
       9 <- 15         0.00045
       9 <- 17        -0.00102
       9 <- 18         0.00355
       9 <- 19        -0.00451
       9 <- 21        -0.00235
       9 <- 22        -0.00142
       9 <- 24         0.00168
       9 <- 25        -0.00221
       9 <- 27        -0.00124
       9 <- 28         0.00023
       9 <- 30        -0.00067
       9 <- 31         0.00117
       9 <- 33         0.00028
       9 <- 34         0.00056
       9 <- 36         0.00065
       9 <- 38         0.00138
       9 <- 40         0.00127
       9 <- 41         0.00170
       9 <- 43        -0.00054
       9 <- 44         0.00130
       9 <- 45        -0.00023
       9 <- 47         0.00100
       9 <- 54         0.00044
       9 <- 55         0.00056
       9 <- 58        -0.00058
       9 <- 60         0.00027
       9 <- 61        -0.00039
       9 <- 63         0.00021
       9 <- 65         0.00052
       9 <- 67         0.00012
       9 <- 68        -0.00011
       9 <- 70         0.00011
       9 <- 71        -0.00014
       9 <- 72        -0.00040
       9 <- 74         0.00079
       9 <- 76         0.00020
       9 <- 78        -0.00024
       9 <- 79         0.00111
       9 <- 81        -0.00078
       9 <- 83        -0.00061
 This state for optimization and/or second-order correction.
 Total Energy, E(TD-HF/TD-DFT) =  -115.379675130    
 Copying the excited state density for this state as the 1-particle RhoCI density.
 
 Excited State   2:      Singlet-A      8.5927 eV  144.29 nm  f=0.0604  <S**2>=0.000
       3 -> 13         0.00133
       3 -> 16        -0.00245
       3 -> 20         0.00259
       3 -> 23         0.00202
       3 -> 26         0.00095
       3 -> 29         0.00057
       3 -> 32         0.00045
       3 -> 37        -0.00010
       3 -> 39        -0.00094
       3 -> 42        -0.00071
       3 -> 46        -0.00023
       3 -> 49         0.00032
       3 -> 51         0.00056
       3 -> 57        -0.00018
       3 -> 59         0.00034
       3 -> 64         0.00016
       3 -> 69        -0.00014
       3 -> 73        -0.00017
       3 -> 77         0.00016
       3 -> 80        -0.00027
       3 -> 82        -0.00020
       4 -> 13         0.00203
       4 -> 16         0.00215
       4 -> 20         0.00519
       4 -> 23        -0.00284
       4 -> 26         0.00119
       4 -> 29        -0.00042
       4 -> 32        -0.00123
       4 -> 35        -0.00018
       4 -> 37        -0.00060
       4 -> 39        -0.00055
       4 -> 42        -0.00039
       4 -> 46        -0.00032
       4 -> 49        -0.00046
       4 -> 53        -0.00032
       4 -> 57        -0.00039
       4 -> 75         0.00016
       4 -> 77         0.00037
       4 -> 80         0.00021
       5 -> 13         0.00156
       5 -> 16        -0.00351
       5 -> 20        -0.00171
       5 -> 23         0.00188
       5 -> 26         0.00050
       5 -> 29        -0.00228
       5 -> 32        -0.00115
       5 -> 35         0.00062
       5 -> 37         0.00140
       5 -> 39        -0.00098
       5 -> 42         0.00014
       5 -> 46        -0.00123
       5 -> 49        -0.00013
       5 -> 53         0.00081
       5 -> 57         0.00042
       5 -> 59         0.00010
       5 -> 62         0.00011
       5 -> 64         0.00036
       5 -> 66        -0.00017
       5 -> 69        -0.00036
       5 -> 73         0.00044
       5 -> 75         0.00021
       5 -> 77         0.00037
       5 -> 80         0.00050
       5 -> 82        -0.00028
       6 -> 10        -0.01827
       6 -> 11        -0.00575
       6 -> 12        -0.00058
       6 -> 14        -0.01016
       6 -> 15         0.00066
       6 -> 17        -0.00930
       6 -> 18         0.00622
       6 -> 19        -0.00132
       6 -> 21        -0.00244
       6 -> 22        -0.00440
       6 -> 24        -0.00390
       6 -> 25        -0.00240
       6 -> 27        -0.00021
       6 -> 30         0.00180
       6 -> 31         0.00075
       6 -> 36        -0.00013
       6 -> 40        -0.00136
       6 -> 41        -0.00138
       6 -> 43         0.00065
       6 -> 44        -0.00083
       6 -> 45        -0.00033
       6 -> 47         0.00015
       6 -> 48        -0.00016
       6 -> 52        -0.00086
       6 -> 54        -0.00015
       6 -> 56        -0.00099
       6 -> 58         0.00075
       6 -> 60         0.00030
       6 -> 61        -0.00024
       6 -> 63        -0.00014
       6 -> 65         0.00024
       6 -> 67        -0.00015
       6 -> 68         0.00018
       6 -> 70        -0.00029
       6 -> 71         0.00028
       6 -> 72        -0.00047
       6 -> 74        -0.00039
       6 -> 79        -0.00028
       6 -> 81         0.00035
       6 -> 83         0.00029
       7 -> 13        -0.00351
       7 -> 16        -0.00086
       7 -> 20        -0.00217
       7 -> 26        -0.00239
       7 -> 29        -0.00027
       7 -> 32        -0.00047
       7 -> 35        -0.00013
       7 -> 37        -0.00084
       7 -> 39         0.00167
       7 -> 42         0.00081
       7 -> 46         0.00027
       7 -> 49        -0.00010
       7 -> 53         0.00021
       7 -> 57         0.00087
       7 -> 59        -0.00093
       7 -> 66        -0.00016
       7 -> 69         0.00015
       7 -> 73         0.00033
       7 -> 75        -0.00020
       7 -> 77        -0.00047
       7 -> 80         0.00017
       7 -> 82         0.00040
       8 -> 13         0.00141
       8 -> 16         0.00543
       8 -> 20         0.00399
       8 -> 23        -0.00086
       8 -> 26        -0.00090
       8 -> 29         0.00020
       8 -> 32        -0.00198
       8 -> 35        -0.00015
       8 -> 39         0.00115
       8 -> 42         0.00060
       8 -> 49        -0.00057
       8 -> 51        -0.00011
       8 -> 53        -0.00096
       8 -> 57        -0.00015
       8 -> 59         0.00030
       8 -> 62         0.00013
       8 -> 64        -0.00012
       8 -> 69         0.00056
       8 -> 73         0.00052
       8 -> 77        -0.00014
       8 -> 80         0.00054
       8 -> 82         0.00025
       9 -> 10         0.07373
       9 -> 11         0.70206
       9 -> 12         0.00633
       9 -> 14         0.00156
       9 -> 15         0.00242
       9 -> 17        -0.02280
       9 -> 18        -0.00257
       9 -> 19        -0.01835
       9 -> 21        -0.00541
       9 -> 22        -0.00328
       9 -> 24        -0.00658
       9 -> 25        -0.00550
       9 -> 27        -0.00015
       9 -> 28         0.00129
       9 -> 30        -0.00053
       9 -> 31         0.00128
       9 -> 33        -0.00060
       9 -> 34        -0.00114
       9 -> 36        -0.00084
       9 -> 38        -0.00077
       9 -> 40        -0.00106
       9 -> 41        -0.00223
       9 -> 43         0.00071
       9 -> 44        -0.00171
       9 -> 45        -0.00010
       9 -> 47         0.00105
       9 -> 48        -0.00017
       9 -> 50        -0.00048
       9 -> 52         0.00077
       9 -> 54         0.00052
       9 -> 55         0.00092
       9 -> 56         0.00031
       9 -> 60        -0.00051
       9 -> 68         0.00019
       9 -> 70         0.00024
       9 -> 71        -0.00036
       9 -> 72        -0.00019
       9 -> 74        -0.00069
       9 -> 76         0.00012
       9 -> 78         0.00024
       9 -> 79        -0.00070
       9 -> 81         0.00069
       9 -> 83         0.00050
       9 -> 84         0.00011
       3 <- 13         0.00057
       3 <- 16        -0.00061
       3 <- 20         0.00141
       3 <- 23         0.00063
       3 <- 26         0.00102
       3 <- 29         0.00011
       3 <- 32         0.00044
       3 <- 37         0.00012
       3 <- 39        -0.00091
       3 <- 42        -0.00055
       3 <- 49         0.00015
       3 <- 51         0.00018
       3 <- 57        -0.00055
       3 <- 66        -0.00012
       3 <- 69        -0.00012
       3 <- 73        -0.00017
       3 <- 77         0.00017
       3 <- 80        -0.00026
       3 <- 82        -0.00019
       4 <- 13         0.00213
       4 <- 16         0.00030
       4 <- 20         0.00301
       4 <- 23        -0.00163
       4 <- 26         0.00127
       4 <- 29        -0.00048
       4 <- 32        -0.00071
       4 <- 37         0.00011
       4 <- 39        -0.00063
       4 <- 42        -0.00019
       4 <- 46        -0.00030
       4 <- 49        -0.00041
       4 <- 51         0.00016
       4 <- 53        -0.00033
       4 <- 57        -0.00018
       4 <- 64         0.00013
       4 <- 75         0.00015
       4 <- 77         0.00037
       4 <- 80         0.00019
       5 <- 13        -0.00120
       5 <- 16        -0.00053
       5 <- 20        -0.00091
       5 <- 23         0.00155
       5 <- 26         0.00035
       5 <- 29        -0.00166
       5 <- 32        -0.00094
       5 <- 35         0.00045
       5 <- 37         0.00093
       5 <- 39        -0.00082
       5 <- 46        -0.00105
       5 <- 53         0.00063
       5 <- 57         0.00029
       5 <- 59         0.00012
       5 <- 64         0.00026
       5 <- 69        -0.00027
       5 <- 73         0.00040
       5 <- 75         0.00021
       5 <- 77         0.00034
       5 <- 80         0.00041
       5 <- 82        -0.00025
       6 <- 10         0.00383
       6 <- 11         0.00235
       6 <- 12         0.00091
       6 <- 14        -0.00197
       6 <- 17        -0.00140
       6 <- 18        -0.00137
       6 <- 19         0.00189
       6 <- 21        -0.00177
       6 <- 22        -0.00134
       6 <- 24        -0.00306
       6 <- 25         0.00032
       6 <- 27         0.00016
       6 <- 28         0.00016
       6 <- 30         0.00130
       6 <- 31        -0.00078
       6 <- 33        -0.00041
       6 <- 34        -0.00064
       6 <- 40        -0.00092
       6 <- 41        -0.00094
       6 <- 43         0.00033
       6 <- 44        -0.00062
       6 <- 47        -0.00039
       6 <- 48        -0.00012
       6 <- 50         0.00016
       6 <- 52        -0.00076
       6 <- 54        -0.00034
       6 <- 55        -0.00027
       6 <- 56        -0.00069
       6 <- 58         0.00042
       6 <- 60         0.00031
       6 <- 63        -0.00024
       6 <- 67        -0.00023
       6 <- 70        -0.00020
       6 <- 71         0.00026
       6 <- 72        -0.00026
       6 <- 74        -0.00035
       6 <- 76         0.00012
       6 <- 79        -0.00028
       6 <- 81         0.00025
       6 <- 83         0.00020
       7 <- 13        -0.00186
       7 <- 16        -0.00096
       7 <- 20        -0.00078
       7 <- 23         0.00180
       7 <- 26        -0.00145
       7 <- 32        -0.00033
       7 <- 37        -0.00064
       7 <- 39         0.00138
       7 <- 42         0.00050
       7 <- 46         0.00025
       7 <- 51         0.00027
       7 <- 57         0.00094
       7 <- 59        -0.00064
       7 <- 66        -0.00010
       7 <- 69         0.00014
       7 <- 73         0.00030
       7 <- 75        -0.00019
       7 <- 77        -0.00044
       7 <- 80         0.00011
       7 <- 82         0.00032
       8 <- 13         0.00128
       8 <- 20         0.00186
       8 <- 23         0.00117
       8 <- 26        -0.00049
       8 <- 29         0.00070
       8 <- 32        -0.00158
       8 <- 35        -0.00012
       8 <- 39         0.00106
       8 <- 42         0.00041
       8 <- 49        -0.00020
       8 <- 51         0.00023
       8 <- 53        -0.00094
       8 <- 57         0.00021
       8 <- 59         0.00028
       8 <- 62         0.00013
       8 <- 64        -0.00011
       8 <- 66         0.00011
       8 <- 69         0.00046
       8 <- 73         0.00045
       8 <- 77        -0.00014
       8 <- 80         0.00042
       8 <- 82         0.00019
       9 <- 10         0.00220
       9 <- 11        -0.00567
       9 <- 12        -0.00270
       9 <- 14        -0.00036
       9 <- 15         0.00019
       9 <- 17         0.00238
       9 <- 18        -0.00202
       9 <- 19         0.00135
       9 <- 21         0.00310
       9 <- 22         0.00288
       9 <- 24         0.00309
       9 <- 25         0.00085
       9 <- 27         0.00051
       9 <- 28        -0.00045
       9 <- 30        -0.00035
       9 <- 31        -0.00074
       9 <- 34         0.00011
       9 <- 36        -0.00094
       9 <- 38        -0.00109
       9 <- 40        -0.00098
       9 <- 41        -0.00136
       9 <- 43         0.00030
       9 <- 44        -0.00073
       9 <- 47        -0.00025
       9 <- 50        -0.00015
       9 <- 52         0.00058
       9 <- 56         0.00034
       9 <- 58        -0.00013
       9 <- 60        -0.00025
       9 <- 61         0.00028
       9 <- 63        -0.00025
       9 <- 65        -0.00028
       9 <- 67        -0.00013
       9 <- 70         0.00024
       9 <- 71        -0.00027
       9 <- 74        -0.00060
       9 <- 76         0.00016
       9 <- 78         0.00027
       9 <- 79        -0.00065
       9 <- 81         0.00050
       9 <- 83         0.00036
 
 Excited State   3:      Singlet-A      8.7714 eV  141.35 nm  f=0.0025  <S**2>=0.000
       3 -> 10         0.00289
       3 -> 11        -0.00469
       3 -> 12        -0.00153
       3 -> 14        -0.00336
       3 -> 15        -0.00026
       3 -> 17         0.00306
       3 -> 18        -0.00340
       3 -> 19         0.00469
       3 -> 21         0.00225
       3 -> 22         0.00211
       3 -> 24         0.00135
       3 -> 25         0.00145
       3 -> 27        -0.00056
       3 -> 28        -0.00148
       3 -> 30        -0.00040
       3 -> 31        -0.00173
       3 -> 33         0.00088
       3 -> 34        -0.00078
       3 -> 36        -0.00028
       3 -> 38        -0.00057
       3 -> 40        -0.00077
       3 -> 41         0.00065
       3 -> 43        -0.00020
       3 -> 44         0.00092
       3 -> 45         0.00052
       3 -> 47        -0.00118
       3 -> 48        -0.00059
       3 -> 54        -0.00063
       3 -> 55        -0.00059
       3 -> 56         0.00035
       3 -> 60         0.00011
       3 -> 61         0.00033
       3 -> 63        -0.00021
       3 -> 65        -0.00022
       3 -> 67        -0.00017
       3 -> 74         0.00022
       3 -> 76         0.00011
       3 -> 79         0.00016
       3 -> 81        -0.00030
       3 -> 83         0.00010
       4 -> 10        -0.00583
       4 -> 11         0.00016
       4 -> 12         0.00041
       4 -> 14         0.00158
       4 -> 15         0.00587
       4 -> 17         0.00115
       4 -> 18         0.00317
       4 -> 19        -0.00575
       4 -> 21        -0.00140
       4 -> 22        -0.00054
       4 -> 24         0.00280
       4 -> 25        -0.00326
       4 -> 27         0.00026
       4 -> 28         0.00063
       4 -> 30         0.00080
       4 -> 31         0.00043
       4 -> 33        -0.00028
       4 -> 34         0.00131
       4 -> 36        -0.00045
       4 -> 38         0.00072
       4 -> 41         0.00048
       4 -> 43        -0.00057
       4 -> 45        -0.00055
       4 -> 47         0.00117
       4 -> 48         0.00063
       4 -> 50        -0.00025
       4 -> 52         0.00047
       4 -> 54         0.00067
       4 -> 56        -0.00052
       4 -> 58         0.00036
       4 -> 60         0.00025
       4 -> 63         0.00021
       4 -> 65         0.00011
       4 -> 67         0.00024
       4 -> 70         0.00023
       4 -> 76        -0.00010
       4 -> 78        -0.00032
       4 -> 79        -0.00024
       4 -> 83        -0.00026
       5 -> 10         0.00383
       5 -> 11        -0.00764
       5 -> 12         0.00054
       5 -> 14        -0.00624
       5 -> 15        -0.00340
       5 -> 17         0.00503
       5 -> 18        -0.00379
       5 -> 19        -0.00491
       5 -> 21        -0.00186
       5 -> 22        -0.00365
       5 -> 24         0.00263
       5 -> 25        -0.00377
       5 -> 27         0.00207
       5 -> 28        -0.00277
       5 -> 30         0.00162
       5 -> 31        -0.00221
       5 -> 33        -0.00169
       5 -> 34         0.00055
       5 -> 36         0.00055
       5 -> 38         0.00025
       5 -> 40         0.00074
       5 -> 43        -0.00041
       5 -> 45        -0.00074
       5 -> 47         0.00077
       5 -> 48         0.00097
       5 -> 50         0.00032
       5 -> 52        -0.00021
       5 -> 55        -0.00038
       5 -> 56        -0.00029
       5 -> 60        -0.00020
       5 -> 61         0.00027
       5 -> 65         0.00013
       5 -> 67        -0.00047
       5 -> 68        -0.00036
       5 -> 70         0.00029
       5 -> 71         0.00020
       5 -> 72         0.00015
       5 -> 74        -0.00033
       5 -> 78        -0.00044
       5 -> 79        -0.00034
       5 -> 83        -0.00044
       5 -> 84        -0.00015
       6 -> 13        -0.00288
       6 -> 16        -0.00268
       6 -> 20        -0.00135
       6 -> 23         0.00676
       6 -> 26         0.00251
       6 -> 29        -0.00144
       6 -> 32         0.00039
       6 -> 37         0.00202
       6 -> 39        -0.00023
       6 -> 42        -0.00072
       6 -> 46        -0.00034
       6 -> 49         0.00017
       6 -> 51         0.00062
       6 -> 53         0.00029
       6 -> 57         0.00011
       6 -> 59         0.00025
       6 -> 64        -0.00032
       6 -> 69        -0.00047
       6 -> 73        -0.00034
       6 -> 80        -0.00021
       6 -> 82        -0.00031
       7 -> 10         0.02725
       7 -> 11        -0.02076
       7 -> 12         0.01091
       7 -> 14         0.02155
       7 -> 15        -0.00737
       7 -> 17        -0.00803
       7 -> 18         0.00244
       7 -> 19        -0.00320
       7 -> 21         0.00524
       7 -> 22         0.00093
       7 -> 24        -0.00376
       7 -> 25         0.01000
       7 -> 27         0.00130
       7 -> 28        -0.00110
       7 -> 30         0.00023
       7 -> 33         0.00089
       7 -> 34         0.00024
       7 -> 36        -0.00011
       7 -> 38         0.00019
       7 -> 40         0.00114
       7 -> 41        -0.00159
       7 -> 43         0.00117
       7 -> 44        -0.00061
       7 -> 45         0.00037
       7 -> 47        -0.00166
       7 -> 48        -0.00061
       7 -> 50         0.00012
       7 -> 54        -0.00035
       7 -> 55        -0.00047
       7 -> 56         0.00041
       7 -> 58        -0.00053
       7 -> 60         0.00011
       7 -> 61        -0.00013
       7 -> 63        -0.00062
       7 -> 72         0.00016
       7 -> 74        -0.00038
       7 -> 78         0.00029
       7 -> 79         0.00028
       7 -> 81         0.00034
       7 -> 83         0.00025
       7 -> 84        -0.00029
       8 -> 10         0.70348
       8 -> 11        -0.03044
       8 -> 12        -0.02605
       8 -> 14        -0.01822
       8 -> 15        -0.00273
       8 -> 17        -0.00589
       8 -> 18        -0.01722
       8 -> 19         0.00721
       8 -> 21         0.00159
       8 -> 22        -0.00039
       8 -> 24        -0.00107
       8 -> 25         0.00596
       8 -> 27        -0.00235
       8 -> 28        -0.00506
       8 -> 30         0.00117
       8 -> 31        -0.00019
       8 -> 33        -0.00072
       8 -> 34        -0.00134
       8 -> 36        -0.00046
       8 -> 38         0.00076
       8 -> 40         0.00019
       8 -> 41        -0.00145
       8 -> 43        -0.00096
       8 -> 44        -0.00035
       8 -> 45        -0.00065
       8 -> 47        -0.00025
       8 -> 50        -0.00012
       8 -> 52         0.00022
       8 -> 54        -0.00060
       8 -> 55         0.00013
       8 -> 56         0.00083
       8 -> 60         0.00054
       8 -> 61         0.00011
       8 -> 63        -0.00024
       8 -> 65        -0.00026
       8 -> 67        -0.00012
       8 -> 68        -0.00056
       8 -> 74        -0.00063
       8 -> 78        -0.00021
       8 -> 81         0.00038
       8 -> 84        -0.00040
       9 -> 13        -0.00888
       9 -> 16        -0.01124
       9 -> 20         0.00736
       9 -> 23         0.01193
       9 -> 26         0.00097
       9 -> 29         0.00128
       9 -> 32        -0.00258
       9 -> 35         0.00044
       9 -> 37         0.00059
       9 -> 39        -0.00089
       9 -> 42        -0.00127
       9 -> 46        -0.00046
       9 -> 49         0.00077
       9 -> 51         0.00112
       9 -> 53        -0.00100
       9 -> 57         0.00058
       9 -> 62        -0.00011
       9 -> 64        -0.00015
       9 -> 69         0.00018
       9 -> 73        -0.00076
       9 -> 77         0.00014
       9 -> 80        -0.00041
       9 -> 82        -0.00062
       3 <- 10         0.00240
       3 <- 11        -0.00226
       3 <- 12        -0.00023
       3 <- 14        -0.00164
       3 <- 17         0.00119
       3 <- 18        -0.00220
       3 <- 19         0.00295
       3 <- 21         0.00176
       3 <- 22         0.00070
       3 <- 24         0.00054
       3 <- 25         0.00082
       3 <- 27        -0.00052
       3 <- 28        -0.00129
       3 <- 30        -0.00040
       3 <- 31        -0.00118
       3 <- 33         0.00067
       3 <- 34        -0.00065
       3 <- 36        -0.00017
       3 <- 38        -0.00024
       3 <- 40        -0.00061
       3 <- 41         0.00030
       3 <- 43        -0.00026
       3 <- 44         0.00058
       3 <- 45         0.00011
       3 <- 47        -0.00075
       3 <- 48        -0.00061
       3 <- 50        -0.00014
       3 <- 54        -0.00019
       3 <- 55        -0.00049
       3 <- 56         0.00037
       3 <- 58         0.00054
       3 <- 61         0.00032
       3 <- 63        -0.00019
       3 <- 65        -0.00019
       3 <- 68         0.00012
       3 <- 74         0.00024
       3 <- 76         0.00012
       3 <- 79         0.00018
       3 <- 81        -0.00026
       3 <- 83         0.00014
       4 <- 10        -0.00261
       4 <- 11        -0.00057
       4 <- 12        -0.00097
       4 <- 14         0.00021
       4 <- 15         0.00167
       4 <- 17         0.00094
       4 <- 18         0.00123
       4 <- 19        -0.00216
       4 <- 21        -0.00062
       4 <- 22         0.00067
       4 <- 24         0.00164
       4 <- 25        -0.00163
       4 <- 27         0.00012
       4 <- 28         0.00027
       4 <- 30         0.00059
       4 <- 33        -0.00062
       4 <- 34         0.00105
       4 <- 36        -0.00033
       4 <- 38         0.00020
       4 <- 40        -0.00017
       4 <- 41         0.00047
       4 <- 43        -0.00024
       4 <- 44         0.00016
       4 <- 47         0.00079
       4 <- 48         0.00061
       4 <- 50        -0.00011
       4 <- 52         0.00041
       4 <- 54         0.00024
       4 <- 56        -0.00040
       4 <- 60         0.00039
       4 <- 63         0.00013
       4 <- 65         0.00011
       4 <- 68        -0.00013
       4 <- 70         0.00021
       4 <- 76        -0.00012
       4 <- 78        -0.00028
       4 <- 79        -0.00023
       4 <- 83        -0.00025
       5 <- 10        -0.00267
       5 <- 11         0.00201
       5 <- 12        -0.00072
       5 <- 14        -0.00416
       5 <- 15         0.00046
       5 <- 17         0.00308
       5 <- 18        -0.00116
       5 <- 19        -0.00188
       5 <- 21        -0.00308
       5 <- 22        -0.00177
       5 <- 24         0.00132
       5 <- 25        -0.00390
       5 <- 27         0.00115
       5 <- 28        -0.00034
       5 <- 30         0.00081
       5 <- 31        -0.00089
       5 <- 33        -0.00153
       5 <- 34         0.00027
       5 <- 36         0.00027
       5 <- 40         0.00040
       5 <- 41         0.00036
       5 <- 43        -0.00042
       5 <- 45        -0.00067
       5 <- 47         0.00084
       5 <- 48         0.00085
       5 <- 50         0.00028
       5 <- 56        -0.00042
       5 <- 58        -0.00026
       5 <- 63         0.00019
       5 <- 65         0.00016
       5 <- 67        -0.00036
       5 <- 68        -0.00020
       5 <- 70         0.00027
       5 <- 71         0.00018
       5 <- 72         0.00016
       5 <- 74        -0.00030
       5 <- 78        -0.00042
       5 <- 79        -0.00028
       5 <- 83        -0.00038
       5 <- 84        -0.00016
       6 <- 13        -0.00166
       6 <- 20        -0.00058
       6 <- 23         0.00252
       6 <- 26         0.00169
       6 <- 29        -0.00132
       6 <- 32         0.00044
       6 <- 35         0.00011
       6 <- 37         0.00135
       6 <- 42        -0.00059
       6 <- 46        -0.00037
       6 <- 51         0.00048
       6 <- 53         0.00031
       6 <- 57         0.00016
       6 <- 59         0.00023
       6 <- 64        -0.00028
       6 <- 69        -0.00041
       6 <- 73        -0.00030
       6 <- 80        -0.00012
       6 <- 82        -0.00026
       7 <- 10        -0.00186
       7 <- 11         0.00138
       7 <- 12         0.00185
       7 <- 14         0.00106
       7 <- 15        -0.00040
       7 <- 17        -0.00060
       7 <- 18         0.00103
       7 <- 19        -0.00261
       7 <- 21         0.00019
       7 <- 22        -0.00122
       7 <- 24        -0.00191
       7 <- 25         0.00117
       7 <- 27         0.00020
       7 <- 28         0.00032
       7 <- 30         0.00016
       7 <- 31         0.00055
       7 <- 33         0.00050
       7 <- 34         0.00026
       7 <- 36         0.00019
       7 <- 38         0.00040
       7 <- 40         0.00104
       7 <- 41        -0.00112
       7 <- 43         0.00080
       7 <- 44        -0.00037
       7 <- 47        -0.00067
       7 <- 48        -0.00035
       7 <- 54         0.00016
       7 <- 55         0.00012
       7 <- 58        -0.00037
       7 <- 61        -0.00035
[...]
       5 -> 57        -0.00018
       5 -> 59         0.00024
       5 -> 62        -0.00041
       5 -> 64         0.00031
       5 -> 66        -0.00012
       5 -> 69         0.00013
       5 -> 73         0.00014
       5 -> 77         0.00020
       6 -> 10         0.00553
       6 -> 11        -0.02861
       6 -> 12         0.52708
       6 -> 13        -0.00019
       6 -> 14        -0.04339
       6 -> 15        -0.00879
       6 -> 17        -0.01119
       6 -> 18         0.01103
       6 -> 19         0.01375
       6 -> 21         0.00102
       6 -> 22        -0.02549
       6 -> 24         0.00349
       6 -> 25         0.00339
       6 -> 27        -0.00039
       6 -> 28        -0.00063
       6 -> 30        -0.00067
       6 -> 31        -0.00083
       6 -> 33         0.00069
       6 -> 34         0.00204
       6 -> 36         0.00201
       6 -> 38        -0.00193
       6 -> 41        -0.00032
       6 -> 43         0.00111
       6 -> 44         0.00029
       6 -> 45        -0.00100
       6 -> 47        -0.00025
       6 -> 48         0.00017
       6 -> 50        -0.00019
       6 -> 52         0.00122
       6 -> 54         0.00065
       6 -> 55         0.00030
       6 -> 56         0.00044
       6 -> 58        -0.00015
       6 -> 61         0.00033
       6 -> 65         0.00041
       6 -> 67        -0.00013
       6 -> 71        -0.00034
       6 -> 74        -0.00022
       6 -> 78         0.00012
       7 -> 13        -0.09829
       7 -> 16         0.02841
       7 -> 20        -0.00131
       7 -> 23         0.00766
       7 -> 26         0.00039
       7 -> 29         0.00136
       7 -> 32         0.00158
       7 -> 35         0.00153
       7 -> 37         0.00051
       7 -> 39         0.00097
       7 -> 42        -0.00021
       7 -> 46         0.00044
       7 -> 49        -0.00037
       7 -> 51         0.00068
       7 -> 53        -0.00015
       7 -> 57        -0.00031
       7 -> 59         0.00085
       7 -> 62        -0.00057
       7 -> 64        -0.00027
       7 -> 66         0.00018
       7 -> 73         0.00015
       7 -> 77        -0.00013
       7 -> 82        -0.00013
       8 -> 13         0.00058
       8 -> 16        -0.45494
       8 -> 20         0.00328
       8 -> 23         0.00526
       8 -> 26         0.00383
       8 -> 29         0.00552
       8 -> 32        -0.00107
       8 -> 35        -0.00199
       8 -> 37        -0.00085
       8 -> 39        -0.00024
       8 -> 42        -0.00150
       8 -> 46        -0.00055
       8 -> 49         0.00040
       8 -> 51        -0.00022
       8 -> 53         0.00023
       8 -> 57         0.00059
       8 -> 59         0.00010
       8 -> 62         0.00051
       8 -> 66         0.00011
       8 -> 69        -0.00018
       8 -> 73         0.00025
       8 -> 75        -0.00011
       8 -> 82        -0.00014
       9 -> 10         0.00078
       9 -> 11         0.00219
       9 -> 12         0.01570
       9 -> 14        -0.00899
       9 -> 15         0.00153
       9 -> 17         0.00235
       9 -> 18         0.00358
       9 -> 19        -0.00304
       9 -> 21        -0.00300
       9 -> 22         0.00494
       9 -> 24        -0.00187
       9 -> 25         0.00089
       9 -> 27        -0.00312
       9 -> 28         0.00076
       9 -> 30        -0.00137
       9 -> 31         0.00132
       9 -> 33         0.00064
       9 -> 34        -0.00116
       9 -> 36        -0.00051
       9 -> 38         0.00064
       9 -> 40        -0.00047
       9 -> 43        -0.00069
       9 -> 45         0.00049
       9 -> 47         0.00013
       9 -> 48        -0.00027
       9 -> 50        -0.00045
       9 -> 52        -0.00051
       9 -> 54        -0.00029
       9 -> 56        -0.00035
       9 -> 58         0.00035
       9 -> 60         0.00020
       9 -> 61        -0.00044
       9 -> 63         0.00012
       9 -> 67         0.00020
       9 -> 68         0.00018
       9 -> 70         0.00013
       9 -> 72        -0.00021
       9 -> 74        -0.00029
       9 -> 76         0.00010
       3 <- 13        -0.00020
       3 <- 16         0.00029
       3 <- 20        -0.00012
       3 <- 26        -0.00029
       3 <- 29        -0.00024
       3 <- 32         0.00026
       3 <- 39        -0.00029
       3 <- 49         0.00021
       3 <- 51         0.00010
       3 <- 53         0.00012
       3 <- 59        -0.00030
       3 <- 62         0.00012
       3 <- 66        -0.00013
       3 <- 82        -0.00012
       4 <- 13        -0.00049
       4 <- 16         0.00150
       4 <- 20         0.00027
       4 <- 23         0.00063
       4 <- 26        -0.00080
       4 <- 29        -0.00093
       4 <- 32         0.00078
       4 <- 35        -0.00059
       4 <- 37         0.00030
       4 <- 39        -0.00018
       4 <- 42        -0.00033
       4 <- 49        -0.00021
       4 <- 51        -0.00014
       4 <- 53         0.00058
       4 <- 57         0.00038
       4 <- 59        -0.00028
       4 <- 62         0.00026
       4 <- 69        -0.00018
       5 <- 13        -0.00020
       5 <- 16        -0.00011
       5 <- 20        -0.00071
       5 <- 26         0.00032
       5 <- 29         0.00042
       5 <- 32        -0.00021
       5 <- 35         0.00089
       5 <- 39         0.00014
       5 <- 42         0.00062
       5 <- 46         0.00034
       5 <- 49         0.00020
       5 <- 51         0.00033
       5 <- 53        -0.00034
       5 <- 57        -0.00030
       5 <- 62        -0.00038
       5 <- 64         0.00018
       5 <- 66        -0.00010
       5 <- 69         0.00016
       5 <- 73         0.00013
       5 <- 77         0.00016
       6 <- 10        -0.00011
       6 <- 11        -0.00110
       6 <- 12        -0.00037
       6 <- 14        -0.00114
       6 <- 17         0.00081
       6 <- 18         0.00013
       6 <- 19         0.00030
       6 <- 24        -0.00012
       6 <- 25        -0.00033
       6 <- 27         0.00072
       6 <- 28        -0.00049
       6 <- 30         0.00011
       6 <- 31         0.00019
       6 <- 33         0.00055
       6 <- 34         0.00036
       6 <- 36         0.00046
       6 <- 38        -0.00089
       6 <- 41         0.00022
       6 <- 43         0.00079
       6 <- 45        -0.00083
       6 <- 47         0.00013
       6 <- 48         0.00019
       6 <- 50         0.00039
       6 <- 52         0.00057
       6 <- 54         0.00039
       6 <- 55         0.00028
       6 <- 56         0.00044
       6 <- 60        -0.00021
       6 <- 61         0.00027
       6 <- 65         0.00034
       6 <- 71        -0.00028
       6 <- 74        -0.00020
       7 <- 16         0.00198
       7 <- 23         0.00025
       7 <- 29        -0.00030
       7 <- 32         0.00045
       7 <- 35         0.00057
       7 <- 37         0.00035
       7 <- 39         0.00012
       7 <- 46         0.00026
       7 <- 49        -0.00035
       7 <- 51         0.00039
       7 <- 57        -0.00013
       7 <- 59         0.00035
       7 <- 62        -0.00053
       7 <- 64        -0.00019
       7 <- 73         0.00016
       7 <- 77        -0.00013
       7 <- 82        -0.00011
       8 <- 13         0.00019
       8 <- 16        -0.00085
       8 <- 20         0.00076
       8 <- 23        -0.00041
       8 <- 26         0.00014
       8 <- 29        -0.00039
       8 <- 32         0.00027
       8 <- 35        -0.00101
       8 <- 39        -0.00043
       8 <- 42        -0.00087
       8 <- 46        -0.00038
       8 <- 51        -0.00044
       8 <- 53         0.00018
       8 <- 57         0.00020
       8 <- 62         0.00044
       8 <- 73         0.00020
       8 <- 75        -0.00010
       8 <- 82        -0.00012
       9 <- 10        -0.00048
       9 <- 11         0.00102
       9 <- 12         0.00048
       9 <- 14         0.00041
       9 <- 15        -0.00016
       9 <- 17        -0.00055
       9 <- 18        -0.00042
       9 <- 19        -0.00057
       9 <- 21         0.00064
       9 <- 22        -0.00039
       9 <- 25        -0.00030
       9 <- 28         0.00011
       9 <- 31        -0.00029
       9 <- 33        -0.00038
       9 <- 34        -0.00021
       9 <- 36        -0.00040
       9 <- 38         0.00049
       9 <- 41        -0.00034
       9 <- 43        -0.00046
       9 <- 44        -0.00014
       9 <- 45         0.00062
       9 <- 50        -0.00041
       9 <- 52        -0.00043
       9 <- 55        -0.00024
       9 <- 56        -0.00026
       9 <- 58         0.00022
       9 <- 61        -0.00016
       9 <- 65        -0.00010
       9 <- 67         0.00015
       9 <- 68         0.00017
       9 <- 72        -0.00018
       9 <- 74        -0.00023
 SavETr:  write IOETrn=   770 NScale= 10 NData=  16 NLR=1 NState=   20 LETran=     370.
 Leave Link  914 at Tue Dec  5 22:57:47 2023, MaxMem=   671088640 cpu:             783.2 elap:              40.1
 (Enter /usr/g16/l601.exe)
 Copying SCF densities to generalized density rwf, IOpCl= 0 IROHF=0.

 **********************************************************************

            Population analysis using the SCF density.

 **********************************************************************

 Orbital symmetries:
       Occupied  (A) (A) (A) (A) (A) (A) (A) (A) (A)
       Virtual   (A) (A) (A) (A) (A) (A) (A) (A) (A) (A) (A) (A)
                 (A) (A) (A) (A) (A) (A) (A) (A) (A) (A) (A) (A)
                 (A) (A) (A) (A) (A) (A) (A) (A) (A) (A) (A) (A)
                 (A) (A) (A) (A) (A) (A) (A) (A) (A) (A) (A) (A)
                 (A) (A) (A) (A) (A) (A) (A) (A) (A) (A) (A) (A)
                 (A) (A) (A) (A) (A) (A) (A) (A) (A) (A) (A) (A)
                 (A) (A) (A) (A) (A)
 The electronic state is 1-A.
 Alpha  occ. eigenvalues --  -19.20556 -10.26302  -1.04945  -0.69347  -0.52053
 Alpha  occ. eigenvalues --   -0.45663  -0.44135  -0.34740  -0.28727
 Alpha virt. eigenvalues --    0.03499   0.08144   0.12676   0.12770   0.14630
 Alpha virt. eigenvalues --    0.23094   0.23477   0.32607   0.37396   0.39232
 Alpha virt. eigenvalues --    0.45301   0.45678   0.47833   0.51216   0.51672
 Alpha virt. eigenvalues --    0.58495   0.70044   0.73483   0.78588   0.90300
 Alpha virt. eigenvalues --    0.92960   1.03201   1.28134   1.41161   1.47035
 Alpha virt. eigenvalues --    1.51503   1.51896   1.54125   1.57409   1.60274
 Alpha virt. eigenvalues --    1.69392   1.87196   1.93272   1.95940   2.00599
 Alpha virt. eigenvalues --    2.02282   2.15825   2.25715   2.26433   2.29590
 Alpha virt. eigenvalues --    2.30824   2.40427   2.48089   2.54267   2.59485
 Alpha virt. eigenvalues --    2.73624   2.76872   2.81222   2.90290   3.01252
 Alpha virt. eigenvalues --    3.08503   3.20500   3.31287   3.33571   3.37636
 Alpha virt. eigenvalues --    3.55343   3.55620   3.56966   3.89283   4.09231
 Alpha virt. eigenvalues --    4.15832   4.34836   4.46212   5.27115   5.36091
 Alpha virt. eigenvalues --    5.44007   5.72002   5.76462   5.92077   6.19392
 Alpha virt. eigenvalues --    6.45379   6.66968   6.74344   6.95014   7.11384
 Alpha virt. eigenvalues --   22.34809  43.68644
          Condensed to atoms (all electrons):
               1          2          3          4          5          6
     1  C    4.741232   0.417750   0.278028   0.417749   0.386353  -0.042002
     2  H    0.417750   0.616427  -0.051058  -0.049531  -0.032269  -0.008795
     3  O    0.278028  -0.051058   8.028277  -0.051059  -0.036666   0.285921
     4  H    0.417749  -0.049531  -0.051059   0.616430  -0.032270  -0.008795
     5  H    0.386353  -0.032269  -0.036666  -0.032270   0.577431   0.011808
     6  H   -0.042002  -0.008795   0.285921  -0.008795   0.011808   0.449877
 Mulliken charges:
               1
     1  C   -0.199109
     2  H    0.107477
     3  O   -0.453443
     4  H    0.107476
     5  H    0.125613
     6  H    0.311987
 Sum of Mulliken charges =   0.00000
 Mulliken charges with hydrogens summed into heavy atoms:
               1
     1  C    0.141456
     3  O   -0.141456
 Electronic spatial extent (au):  <R**2>=             83.8598
 Charge=              0.0000 electrons
 Dipole moment (field-independent basis, Debye):
    X=             -0.7070    Y=             -1.5298    Z=             -0.0000  Tot=              1.6853
 Quadrupole moment (field-independent basis, Debye-Ang):
   XX=            -13.0874   YY=            -12.1626   ZZ=            -13.7578
   XY=             -2.3616   XZ=              0.0000   YZ=              0.0000
 Traceless Quadrupole moment (field-independent basis, Debye-Ang):
   XX=             -0.0848   YY=              0.8400   ZZ=             -0.7552
   XY=             -2.3616   XZ=              0.0000   YZ=              0.0000
 Octapole moment (field-independent basis, Debye-Ang**2):
  XXX=              4.5814  YYY=             -0.5226  ZZZ=             -0.0000  XYY=              1.9224
  XXY=             -2.1057  XXZ=             -0.0000  XZZ=              0.4364  YZZ=             -0.7192
  YYZ=             -0.0000  XYZ=             -0.0000
 Hexadecapole moment (field-independent basis, Debye-Ang**3):
 XXXX=            -61.4412 YYYY=            -20.9072 ZZZZ=            -20.6850 XXXY=             -4.0596
 XXXZ=              0.0000 YYYX=             -3.1677 YYYZ=              0.0000 ZZZX=              0.0000
 ZZZY=              0.0000 XXYY=            -12.4317 XXZZ=            -14.3564 YYZZ=             -7.0658
 XXYZ=              0.0000 YYXZ=             -0.0000 ZZXY=              0.1481
 N-N= 4.034537588224D+01 E-N=-3.521692092502D+02  KE= 1.150566988162D+02
 Leave Link  601 at Tue Dec  5 22:57:48 2023, MaxMem=   671088640 cpu:              14.1 elap:               0.8
 (Enter /usr/g16/l9999.exe)
 Electronic transition elements 
                 1             2             3             4             5 
      1  -0.115380D+03 -0.115319D+03 -0.115313D+03 -0.115280D+03 -0.115271D+03
      2   0.248362D-05  0.976180D-05 -0.761284D-01  0.157843D-04  0.470514D+00
      3   0.424454D-02  0.137897D+00  0.733526D-01  0.613619D-01  0.206432D+00
      4  -0.159214D-01 -0.517669D+00  0.195408D-01 -0.230347D+00  0.549311D-01
      5   0.000000D+00 -0.329480D-05  0.173723D-01 -0.610310D-05 -0.190335D+00
      6   0.495133D-02 -0.491798D-01 -0.371189D-01 -0.212478D-01 -0.678709D-01
      7  -0.185915D-01  0.184623D+00 -0.988794D-02  0.797631D-01 -0.180592D-01
      8   0.217898D+00 -0.623270D-01 -0.315839D-05 -0.206874D+00 -0.961450D-04
      9   0.661650D+00  0.263326D+00  0.284004D+00 -0.202187D+00 -0.125017D+00
     10   0.176252D+00  0.701528D-01 -0.106620D+01 -0.538437D-01  0.470210D+00
     11   0.000000D+00  0.538802D-05 -0.600987D-01  0.101190D-04  0.327510D+00
     12   0.551789D-02  0.853908D-01  0.245490D+00 -0.610489D-04  0.970012D-01
     13  -0.551338D-02 -0.853835D-01 -0.178016D+00  0.762932D-04  0.421441D+00
     14   0.777834D-01  0.108412D+00 -0.459270D+00  0.790901D-01  0.331197D+00
     15  -0.292003D+00 -0.406961D+00 -0.122339D+00 -0.296876D+00  0.881614D-01
     16  -0.962163D-02 -0.148920D+00  0.121425D+00  0.111860D-03 -0.930784D-01
                 6             7             8             9            10 
      1  -0.115268D+03 -0.115258D+03 -0.115219D+03 -0.115217D+03 -0.115213D+03
      2   0.113502D-03 -0.242783D+00  0.118188D+00 -0.439932D-04 -0.744816D+00
      3  -0.591990D-01 -0.694722D+00  0.243691D+00 -0.123049D+00  0.241060D+00
      4   0.222442D+00 -0.185045D+00  0.648923D-01  0.462042D+00  0.641926D-01
      5  -0.460726D-04  0.106057D+00 -0.477490D-01  0.188825D-04  0.324779D+00
      6   0.205653D-01  0.272811D+00 -0.102968D+00  0.521528D-01 -0.968890D-01
      7  -0.772717D-01  0.726655D-01 -0.274192D-01 -0.195829D+00 -0.258005D-01
      8   0.409152D+00 -0.476861D-05  0.730355D-05 -0.494196D+00  0.234596D-04
      9  -0.873056D+00  0.445311D-01 -0.161853D+00 -0.302416D+00 -0.145946D+00
     10  -0.232434D+00 -0.167180D+00  0.607692D+00 -0.804977D-01  0.547937D+00
     11   0.825084D-04 -0.110185D+00 -0.205055D+00 -0.192509D-04 -0.207390D+00
     12  -0.983161D-01  0.123914D+00 -0.144330D+00 -0.127919D+00 -0.328239D+00
     13   0.984366D-01 -0.294747D+00  0.206576D-01  0.127864D+00 -0.164121D+00
     14  -0.662581D-01 -0.493029D+00  0.158989D-01 -0.139744D+00  0.108979D-01
     15   0.249071D+00 -0.131319D+00  0.422848D-02  0.524703D+00  0.287474D-02
     16   0.171473D+00  0.120039D+00 -0.473145D-01  0.223019D+00 -0.470671D-01
                11            12            13            14            15 
      1  -0.115203D+03 -0.115199D+03 -0.115177D+03 -0.115171D+03 -0.115164D+03
      2   0.174055D-04  0.158544D-01  0.618678D-05 -0.222308D+00 -0.608010D+00
      3  -0.145310D+00 -0.129254D+00 -0.212402D-01  0.224034D+00  0.427042D+00
      4   0.545458D+00 -0.344616D-01  0.797429D-01  0.596725D-01  0.113733D+00
      5  -0.774422D-05 -0.100160D-01 -0.261822D-05  0.862857D-01  0.296146D+00
      6   0.642594D-01  0.513474D-01  0.117685D-01 -0.117322D+00 -0.196647D+00
      7  -0.241217D+00  0.136917D-01 -0.441803D-01 -0.312497D-01 -0.523721D-01
      8  -0.974282D-01 -0.593163D-05  0.341783D+00  0.148708D-04 -0.121232D-05
      9  -0.459008D+00  0.750480D-01 -0.329432D+00 -0.104999D+00  0.149763D-01
     10  -0.122272D+00 -0.281646D+00 -0.877492D-01  0.394176D+00 -0.561929D-01
     11   0.109443D-04  0.205251D+00  0.587566D-05 -0.308012D+00 -0.463160D-01
     12  -0.154844D+00  0.378561D+00  0.808617D-01 -0.927094D-01 -0.476153D+00
     13   0.154882D+00  0.305578D+00 -0.808549D-01  0.830530D-02 -0.881718D-01
     14  -0.208599D-01 -0.465127D+00 -0.120319D+00  0.490103D+00  0.260893D+00
     15   0.782036D-01 -0.123887D+00  0.451702D+00  0.130547D+00  0.694664D-01
     16   0.270067D+00  0.209110D-01 -0.141005D+00 -0.289664D-01 -0.111245D+00
                16            17            18            19            20 
      1  -0.115153D+03 -0.115133D+03 -0.115127D+03 -0.115119D+03 -0.115117D+03
      2  -0.325232D-04 -0.325138D+00  0.230832D-04  0.581674D-01 -0.260918D-05
      3  -0.129711D+00  0.451209D+00  0.967310D-03 -0.647756D+00 -0.401410D-01
      4   0.487053D+00  0.120186D+00 -0.376093D-02 -0.172561D+00  0.150531D+00
      5   0.157168D-04  0.159826D+00 -0.121673D-04 -0.336349D-01  0.123036D-05
      6   0.615830D-01 -0.230459D+00 -0.121492D-02  0.348648D+00  0.190711D-01
      7  -0.231240D+00 -0.613862D-01  0.462813D-02  0.928783D-01 -0.715040D-01
      8  -0.180147D-01  0.819751D-05  0.315838D+00 -0.479482D-04  0.577732D+00
      9  -0.484548D-01  0.220548D-01  0.420897D+00 -0.383611D-01  0.173276D+00
     10  -0.129052D-01 -0.828347D-01  0.112123D+00  0.143913D+00  0.461814D-01
     11  -0.137349D-04 -0.164520D-01  0.254980D-04  0.160017D+00 -0.121387D-05
     12  -0.712630D-01  0.710623D+00 -0.218525D-01  0.624271D+00 -0.124024D+00
     13   0.712377D-01  0.520951D-02  0.218845D-01 -0.415900D+00  0.123991D+00
     14  -0.196257D+00 -0.651520D+00 -0.137141D-01 -0.397734D+00 -0.404356D-01
     15   0.736811D+00 -0.173549D+00  0.513559D-01 -0.105976D+00  0.151759D+00
     16   0.124250D+00  0.202251D+00  0.381818D-01  0.298205D+00  0.216357D+00

 Test job not archived.
 1\1\GINC-LW07\SP\RPBE1PBE TD-FC\def2TZVP\C1H4O1\LVZIYI\05-Dec-2023\0\\
 #p td(nstates=20,root=1) pbe1pbe/def2TZVP iop(9/40=4)\\Gaussian input 
 prepared by ASE\\0,1\C,0,-4.89126,3.2977,0.00029\H,0,-5.28213,3.05494,
 -1.01161\O,0,-3.49307,3.28429,-0.00328\H,0,-5.28213,2.58374,0.75736\H,
 0,-5.23998,4.3154,0.27138\H,0,-3.22959,2.35981,-0.24953\\Version=ES64L
 -G16RevA.03\State=1-A\HF=-115.6350556\RMSD=3.594e-09\PG=C01 [X(C1H4O1)
 ]\\@


 A COMPUTER IS LIKE A HORSE, IT WILL SENSE WEAKNESS.
     -- GREG WETTSTEIN
 Job cpu time:       0 days  0 hours 18 minutes 59.2 seconds.
 Elapsed time:       0 days  0 hours  1 minutes  0.4 seconds.
 File lengths (MBytes):  RWF=    109 Int=      0 D2E=      0 Chk=      6 Scr=      1
 Normal termination of Gaussian 16 at Tue Dec  5 22:57:48 2023.
