[Molden Format]
made by pyscf v[2.4.0]
[Atoms] (AU)
C   1   6    -9.24314180404010     6.23174984097820     0.00054802057612
H   2   1    -9.98177905434885     5.77299992697879    -1.91166584487126
O   3   8    -6.60094563393448     6.20640861364779    -0.00619830168857
H   4   1    -9.98177905434885     4.88256097708373     1.43120297770060
H   5   1    -9.90212709819843     8.15492411794807     0.51283387568447
H   6   1    -6.10304059463408     4.45939460600988    -0.47154335986272
[GTO]
1 0
 s    5 1.00
          1238.4016938  0.0055173650481097
          186.29004992   0.041088828555946
          42.251176346     0.1822538212649
          11.676557932    0.46828459437429
          3.5930506482    0.44575817336002
 s    1 1.00
         0.40245147363                   1
 s    1 1.00
         0.13090182668                   1
 p    3 1.00
          9.4680970621   0.056888332011037
          2.0103545142    0.31294059336471
         0.54771004707    0.76065016509135
 p    1 1.00
         0.15268613795                   1
 d    1 1.00
                   0.8                   1

2 0
 s    3 1.00
             13.010701   0.033485484812989
             1.9622572    0.23472187088125
            0.44453796    0.81377028525955
 s    1 1.00
            0.12194962                   1
 p    1 1.00
                   0.8                   1

3 0
 s    5 1.00
          2266.1767785  -0.0053893503921743
          340.87010191   -0.04023472138896
          77.363135167   -0.18008184205526
           21.47964494   -0.46828857657651
          6.6589433124   -0.44692617160187
 s    1 1.00
         0.80975975668                   1
 s    1 1.00
         0.25530772234                   1
 p    3 1.00
          17.721504317   0.062630248763161
           3.863550544    0.33331138482352
          1.0480920883    0.74148638308122
 p    1 1.00
         0.27641544411                   1
 d    1 1.00
                   1.2                   1

4 0
 s    3 1.00
             13.010701   0.033485484812989
             1.9622572    0.23472187088125
            0.44453796    0.81377028525955
 s    1 1.00
            0.12194962                   1
 p    1 1.00
                   0.8                   1

5 0
 s    3 1.00
             13.010701   0.033485484812989
             1.9622572    0.23472187088125
            0.44453796    0.81377028525955
 s    1 1.00
            0.12194962                   1
 p    1 1.00
                   0.8                   1

6 0
 s    3 1.00
             13.010701   0.033485484812989
             1.9622572    0.23472187088125
            0.44453796    0.81377028525955
 s    1 1.00
            0.12194962                   1
 p    1 1.00
                   0.8                   1

[5d]
[7f]
[9g]

[MO]
 Sym= A
 Ene=    -19.19982014
 Spin= Alpha
 Occup=    2.00000
   1    -8.5968843073643e-05
   2    9.0061580141413e-05
   3    -0.013755378877806
   4    -0.00037637832140399
   5    9.2934095429664e-05
   6    2.4760613719661e-05
   7    -0.0046969046233611
   8    -0.00069266376997631
   9    -0.00018455056744833
  10    -0.00050638159221607
  11    1.9508834818551e-05
  12    -5.1223944716565e-06
  13    0.00089491243011839
  14    7.322438636175e-05
  15     0.001056825528924
  16    0.0016299950293776
  17    0.00040810822864223
  18    0.00011327636878459
  19    0.00015500496992334
  20      0.98893810300007
  21    -0.040247405747404
  22     0.023457677180437
  23    0.0015563595987869
  24    0.0019320106139114
  25    0.00051462134099734
  26    -0.0056086111794561
  27    5.7981298063984e-05
  28    1.5446572312521e-05
  29    0.00032947835909951
  30    0.00012051747177274
  31    -0.00035513261816234
  32    0.00066797976502043
  33    0.00045245466606413
  34    0.0010568333895551
  35    0.0016300118883913
  36    0.00040810235409633
  37    0.00017538233203811
  38    -7.8120197953586e-05
  39    0.0013705724721575
  40    0.0020399993077056
  41    0.0003495750663446
  42    -0.00023079567476244
  43    -6.1472429339426e-05
  44    0.0012271755653453
  45    -0.0011898362314349
  46    -0.00038728112872388
  47    0.0026776554218241
  48    0.00071323585660724
 Sym= A
 Ene=    -10.27242394
 Spin= Alpha
 Occup=    2.00000
   1      0.98837847877317
   2     0.047808319164307
   3    -0.028557623787863
   4    0.00016349662436113
   5    -4.9976218042756e-05
   6    -1.3345870689821e-05
   7      0.00348175228886
   8    0.00023380049416498
   9    6.2300896836312e-05
  10    0.00011767123195201
  11    -4.3175201988467e-05
  12    -2.4161925476702e-05
  13    -0.00011937900755553
  14    -0.0001621586120719
  15    -0.0032360740855223
  16    0.0066530284649645
  17    -0.00093778482694789
  18    -0.00056321319360807
  19    -0.0020848773762177
  20    -4.8939826878083e-05
  21    0.00078090303746237
  22    -0.0039431608704507
  23    0.00050672168675472
  24    -4.1466432581326e-05
  25    -1.1044738746431e-05
  26    0.0041291510719409
  27    0.0012866783182175
  28    0.00034273105361992
  29     0.000964899017565
  30    -3.1918693491943e-06
  31    -0.00017691709579036
  32    -0.0010541966194931
  33    -1.1973699745415e-05
  34    -0.003235965556712
  35    0.0066528805175101
  36    -0.00093777419811618
  37    -0.0015256971513955
  38    0.0015284623392832
  39    -0.0034050307499576
  40    0.0062687436095221
  41    -0.00089227879350826
  42    0.0021932563469792
  43    0.00058422183409506
  44    0.0014221760160344
  45     0.001071187576583
  46    -0.0010008629480617
  47    0.00016417463744364
  48    4.3729837747154e-05
 Sym= A
 Ene=    -1.027093998
 Spin= Alpha
 Occup=    2.00000
   1     -0.10193278357176
   2      0.19646197074942
   3    0.0061557056671591
   4      0.12125765450231
   5    -0.0096827639151218
   6    -0.0025790533470308
   7     0.014955911376947
   8    -0.008816218689005
   9    -0.0023485798065513
  10    -0.011621765826048
  11    -0.0012147715129423
  12    0.00039257669408692
  13     0.018760077552162
  14    -0.004560481136307
  15     0.031983683525558
  16    0.0075280442210099
  17    0.0029055255815609
  18    0.0015559577835539
  19    0.0058808415735525
  20      0.26465752786892
  21      0.52644706760408
  22      0.30467940053815
  23    -0.085133428789392
  24    -0.075607454119048
  25    -0.020139419076157
  26    -0.038152955031626
  27    -0.0075168773397552
  28    -0.0020022355056273
  29    -0.0077001464100448
  30    9.8318534879726e-05
  31    0.0026063170000639
  32    0.0042465276800953
  33    0.00036903821594471
  34     0.031983005126494
  35    0.0075278539078567
  36    0.0029053409751723
  37    0.0042751043628173
  38    -0.0043273978861403
  39     0.031266834693584
  40     0.010854831135501
  41    0.0022904979204467
  42    -0.0050834759003964
  43    -0.0013540675841383
  44       0.1690398389542
  45    0.0034949795679299
  46    -0.012427397473576
  47     0.026186863755081
  48    0.0069753867418503
 Sym= A
 Ene=   -0.6818966342
 Spin= Alpha
 Occup=    2.00000
   1     -0.22590262561075
   2      0.45994385679286
   3      0.11388457931785
   4    -0.054879684142608
   5     0.023168917725043
   6    0.0061695397104464
   7     -0.02956066824848
   8     0.001125272121329
   9    0.00029833169631937
  10    -0.00018177088226583
  11    0.00099035124936132
  12    0.00018724232323381
  13    -0.00033761330853016
  14    0.0037174097343131
  15      0.16877858573281
  16     0.032409591413666
  17    0.0047804151757031
  18    0.0047039632316406
  19     0.017234599503031
  20    -0.087006499487352
  21     -0.18574573858227
  22     -0.10551477118465
  23     -0.17367361192622
  24      0.11153807793486
  25      0.02970926297112
  26     -0.09306705617835
  27     0.032714476834689
  28    0.0087135233267089
  29    -0.0021668465164804
  30    0.00067287964661133
  31    -0.0022562755012399
  32     0.011622834779711
  33    0.0025259526651355
  34       0.1687747587119
  35     0.032408388697209
  36    0.0047802530656853
  37     0.012653660796549
  38    -0.012610736965438
  39       0.1841128819713
  40     0.038331308655987
  41    0.0045140469875528
  42    -0.018676062536817
  43    -0.0049746385996747
  44     -0.17148019036699
  45    -0.024494013783713
  46    0.0017352571560038
  47    -0.020842589538731
  48    -0.0055516624678842
 Sym= A
 Ene=   -0.5131138608
 Spin= Alpha
 Occup=    2.00000
   1     0.034955756261088
   2    -0.064573455193339
   3    -0.039869810304783
   4      0.24747348890742
   5       0.1855168023843
   6     0.049422976551905
   7     0.083060385120673
   8      0.09320632638863
   9     0.024830587164061
  10    -0.013660513946629
  11    0.0031874725192528
  12    0.0018889917164636
  13     0.017071104216479
  14     0.011967049916087
  15      -0.1534386961182
  16    -0.037588032367322
  17    -0.00044201766314126
  18    0.0015455100046738
  19    -0.010012136236773
  20     0.053003746915521
  21      0.11538024301237
  22       0.1350276940302
  23     -0.22674091479715
  24      0.33575557639817
  25      0.08943653415727
  26      -0.1003278779872
  27      0.16031377952586
  28     0.042703266606977
  29    0.00042689967475681
  30    -0.0014464166258747
  31    -0.004464428481587
  32      0.01483164790131
  33    -0.0054295630871542
  34     -0.15342892420132
  35     -0.03758510379813
  36    -0.0004416542184712
  37    -0.0036395362086844
  38    0.0094539457021058
  39     0.025458618179197
  40    -0.0030520229032417
  41    0.0056964454087596
  42    0.0020929710580968
  43    0.00055759430157927
  44     -0.28346471779355
  45    -0.081604903988392
  46    0.0078509238109511
  47    -0.023808483462613
  48    -0.0063416888704099
 Sym= A
 Ene=    -0.451959012
 Spin= Alpha
 Occup=    2.00000
   1    -1.4629004286076e-06
   2    4.7018294701758e-06
   3    -3.7207593545975e-06
   4    -1.2343868992714e-05
   5     -0.10558922275319
   6      0.39644510911018
   7    -5.9352554319041e-06
   8    -0.043400967350253
   9      0.16296375565853
  10    -0.0054572219354257
  11    0.0044119295288104
  12    -0.010989319319041
  13    -0.0031519530846362
  14    -0.0011755349310255
  15     -0.25859713155944
  16    -0.095667773827448
  17    -0.0077712299231435
  18    -0.0065023460490098
  19    -0.0072861173056564
  20    -1.6372749829993e-07
  21    -7.5314598265573e-07
  22    9.2893884356036e-07
  23    1.3279945771533e-05
  24    -0.069492037441785
  25      0.26087006406736
  26    6.5168514168328e-06
  27    -0.045742011022173
  28      0.17171995641508
  29    -0.002962368389679
  30    -0.014204823005853
  31    -0.0059654051176882
  32    -0.0017107979065811
  33    0.0037832407811788
  34      0.25859957040522
  35     0.095671182117528
  36    0.0077709988617724
  37     0.009265775551054
  38    -0.0030864361426942
  39    1.4884918624211e-05
  40    3.6543305149196e-06
  41    5.0938079331434e-09
  42    -0.0029192647447476
  43     0.010956566756633
  44    8.8087089002515e-06
  45    3.4005809543603e-06
  46    -1.2149620405243e-07
  47    -0.0032189732671831
  48     0.012087921134511
 Sym= A
 Ene=   -0.4347588003
 Spin= Alpha
 Occup=    2.00000
   1    0.0048927661984341
   2    -0.016532318122765
   3    -0.0041254810301865
   4     -0.25835476440658
   5      0.30186022725048
   6     0.080389997966289
   7    -0.096515412135775
   8      0.15356530823321
   9     0.040897638062139
  10     0.003939898754154
  11    0.00058399990752099
  12    0.0043260346767938
  13    -0.021910791444433
  14    0.0021929082969209
  15    -0.038182267346966
  16    -0.0073250701228371
  17    -0.0058396169760884
  18    0.0069447377807995
  19    -0.00048930531812981
  20     0.046556566943032
  21     0.089737074217974
  22      0.12606024597065
  23       0.3603191008062
  24     0.096319901251238
  25     0.025645885632475
  26      0.20866109054746
  27     0.075373122240028
  28     0.020070201436087
  29     0.004734410013971
  30    -0.0046628034018552
  31    4.635391598086e-05
  32    -0.0083609165064276
  33     -0.01750731881088
  34    -0.038202000196434
  35    -0.0073312623943925
  36    -0.005839922515843
  37    0.0057802159377625
  38     0.003879086740071
  39      0.29751344932627
  40     0.095213722042711
  41    0.0015467754800486
  42    -0.011977566440094
  43    -0.0031907969826819
  44     0.058746367565677
  45     0.046585596706149
  46     0.018334918224537
  47    0.0093086848214066
  48    0.0024787643707515
 Sym= A
 Ene=   -0.3371909435
 Spin= Alpha
 Occup=    2.00000
   1     0.015279839144586
   2    -0.041611000689999
   3     0.021733885152774
   4     -0.13359710949374
   5     -0.26017026208918
   6    -0.069298516236993
   7    -0.031531341289718
   8    -0.072609916740787
   9    -0.019339171762524
  10     0.013129789408392
  11    0.0063753259693426
  12    -0.0063422925049758
  13    -0.00062037936029343
  14     0.023932830504082
  15       0.1592273526337
  16     0.094032260680867
  17    -0.0014770491110788
  18    -0.008306575141818
  19     0.007448062866855
  20     0.078651373709798
  21       0.1564724911408
  22      0.25010940368498
  23      0.23515567482854
  24      0.36379247043925
  25     0.096908822097691
  26      0.18096360369223
  27      0.23279778157101
  28     0.062013961518635
  29    0.0081670661524344
  30    -0.0015768252886301
  31    -0.0054485389127124
  32    0.0048574342519479
  33    -0.0059190230331007
  34      0.15923091941857
  35     0.094033260907049
  36    -0.0014767437884973
  37    -0.0035005784726331
  38    -0.010593337437982
  39     -0.25446001082727
  40     -0.14082339483493
  41    -0.005660687635784
  42    0.0064714300916729
  43     0.001723923833162
  44     -0.21525494699177
  45    -0.072014755452507
  46       0.0172190275687
  47    -0.0082246054680774
  48    -0.0021903466304358
 Sym= A
 Ene=    -0.275820242
 Spin= Alpha
 Occup=    2.00000
   1    2.807599219997e-08
   2    -7.835160485085e-07
   3    2.106807074787e-06
   4    1.0514442288971e-06
   5     0.047989126677259
   6     -0.18015257189415
   7    -3.9030129240993e-07
   8     0.007754025853536
   9    -0.029109349902112
  10    0.0037764330138298
  11     0.031530295076244
  12    0.0076045687074033
  13    0.0021803289431682
  14    -0.0083986969349203
  15       0.2131798265709
  16      0.14046855712077
  17    -0.00037190899922451
  18    0.0050366359314527
  19    0.0043633371659609
  20    -1.7746699561872e-07
  21    -1.6971125291865e-07
  22    -1.5568205769657e-06
  23    -2.490195787331e-06
  24     -0.14933558272892
  25      0.56063666747713
  26    -1.9031029254262e-06
  27     -0.11709923030481
  28      0.43961438176174
  29    -0.0054356979615891
  30    -0.0076989365490977
  31    -0.010945762130795
  32    -0.0031382214585852
  33    0.0020507680304595
  34     -0.21318450120979
  35     -0.14047404185585
  36    0.0003718928135744
  37    -0.0065399411048226
  38    0.0012804885592926
  39    3.1388559083431e-07
  40    1.0661092905169e-06
  41    1.768207337774e-07
  42    0.0023153955142408
  43    -0.0086920329894887
  44    5.4197704540444e-07
  45    1.627881021835e-06
  46    -1.1262215935021e-07
  47    -0.0070313333539562
  48     0.026397704630121
 Sym= A
 Ene=   0.06155061716
 Spin= Alpha
 Occup=    0.00000
   1    -0.059424434704573
   2     0.078785339398463
   3       1.3157364433219
   4     -0.17754772012725
   5    -0.053544264999758
   6    -0.014262356908164
   7     -0.43137194004021
   8     -0.13481913233936
   9    -0.035911324889539
  10    -0.0047448875315332
  11    -0.0019475898904347
  12    -0.00085778093024052
  13     0.011210724442392
  14    -0.0073127079876879
  15     -0.03163682142452
  16     -0.72737308020492
  17    -0.0065507437420858
  18    0.0045699419923949
  19    0.0055949330841305
  20     0.079758708996324
  21      0.14216085914596
  22      0.66507436930577
  23     0.023126955750087
  24      -0.2011348946776
  25    -0.053576120235068
  26      0.06016437754205
  27     -0.29975329530905
  28    -0.079844672266962
  29    -0.0040485527219899
  30    0.0014256895974722
  31    0.0025788017432273
  32    -0.001982241419248
  33    0.0053523595651081
  34    -0.031639981316344
  35     -0.72735883062297
  36    -0.0065503687561442
  37    0.0067474509349151
  38    -0.0025805773004592
  39    -0.010512522002351
  40     -0.40819103297445
  41    -0.0094749525132816
  42    -0.0056636347892448
  43    -0.0015086290159271
  44     -0.13928413517755
  45      -1.0193575306116
  46    -0.00018131792962358
  47    0.0046865444813358
  48    0.0012479216551031
 Sym= A
 Ene=    0.1080237604
 Spin= Alpha
 Occup=    0.00000
   1     -0.13464558342735
   2      0.24983437339182
   3       2.2451963603856
   4    -0.049704592205405
   5     0.054516618517009
   6     0.014523723452062
   7     -0.20309645506497
   8      0.17776743496261
   9     0.047358878098557
  10    0.0014245432587408
  11    0.0016333704165439
  12    0.00082590323150504
  13    -0.0053483500690455
  14    0.0061321751144236
  15    -0.019709814350267
  16     -0.96692155546343
  17     0.006031873321219
  18    -0.0019890631225514
  19    0.0034962673953939
  20    -0.059019913739761
  21    -0.087317776436641
  22     -0.64700555801169
  23     0.051159172078659
  24      0.14428669422376
  25     0.038431952277218
  26     0.089152050950327
  27      0.19972749901949
  28     0.053199381081871
  29    -0.00064467976925506
  30    -0.001721971750105
  31    -0.0012864690768525
  32    0.0056036912323211
  33    -0.0064645369314218
  34     -0.01971276116811
  35     -0.96691763541058
  36    0.0060315222875091
  37    1.3663712179645e-05
  38    -0.0040222418269473
  39    -0.043741475052371
  40      -1.2949748321123
  41    0.0078558702818566
  42    -0.0033900265026071
  43    -0.00090308551211669
  44      0.11353982009232
  45      0.73881508406667
  46     0.011435871468998
  47    -0.00081208520607344
  48    -0.0002163234463488
 Sym= A
 Ene=    0.1475243726
 Spin= Alpha
 Occup=    0.00000
   1    1.7502447309851e-05
   2    -1.5618253313848e-05
   3    -0.00034336592263873
   4    -4.4357551037428e-05
   5      0.10568809830459
   6     -0.39510959360024
   7    -0.00024517804659533
   8      0.31846655264641
   9      -1.1903290716275
  10    -0.004971601186358
  11    -0.0052882513385435
  12    -0.010040734023108
  13    -0.0028603596559556
  14    0.0014176450070051
  15    -0.065158695129813
  16       -1.635487080083
  17    0.00062021654419861
  18    0.0076275738775263
  19     0.004051408834739
  20    2.4163341840403e-05
  21    3.5851714383245e-05
  22    0.00031981905245524
  23    -7.9803113549969e-05
  24    -0.018561826210693
  25     0.069310352374706
  26    -0.000150803814523
  27     -0.04580212873182
  28      0.17112783267959
  29    -0.0028997706667491
  30    0.0093785074298708
  31    -0.005838842112179
  32    -0.0016761986956735
  33    -0.0025100686190032
  34     0.065288598374401
  35       1.6376239190448
  36    -0.00062647721765414
  37    -0.0086183264925243
  38    -0.00026068839195212
  39    -0.0001377166819809
  40    -0.0019588273139486
  41    -1.9947330782203e-06
  42     0.002753552013466
  43    -0.010372558014685
  44    1.1363646371457e-05
  45    -0.0001118364232492
  46    8.7154861416338e-06
  47    -0.0034146188498875
  48     0.012808972284883
 Sym= A
 Ene=    0.1484330647
 Spin= Alpha
 Occup=    0.00000
   1    -0.016356995001299
   2     0.018372013528254
   3       0.3133929052505
   4     0.041040497096769
   5     -0.37303772621513
   6    -0.099834291892909
   7       0.2116694685522
   8      -1.1733433905841
   9     -0.31396366248457
  10    -0.0086002734198014
  11    -0.0020139791619848
  12    0.0083721121345216
  13     -0.01435421729878
  14    -0.007535822736877
  15    -0.054740929953368
  16     -0.97257978665613
  17    0.0032277806520244
  18    -0.0096196821746115
  19    0.0042850855717752
  20    -0.022129189037987
  21    -0.034133947913371
  22     -0.28238973421308
  23      0.07132339225745
  24     0.084151934150241
  25      0.02249729958517
  26      0.13213490060539
  27      0.18421975053111
  28     0.049273882776238
  29    -0.00012509458839233
  30    0.0026686077546937
  31    -0.00048119592545288
  32    0.0018653251507514
  33    0.0099766614775981
  34    -0.054599539636718
  35     -0.96892764882976
  36    0.0032257420721516
  37    -0.0062322839383744
  38    -0.0085022345266293
  39      0.12060476004438
  40       1.7659406925801
  41     0.001877322370054
  42    0.0082655354030537
  43    0.0021895084908145
  44    -0.0087539495553116
  45      0.10547985060448
  46    -0.007877821502489
  47    0.0021000778066385
  48    0.00057488729462891
 Sym= A
 Ene=    0.2084196635
 Spin= Alpha
 Occup=    0.00000
   1    -0.061431633411704
   2      0.11026418169828
   3      0.98559005164261
   4      0.28819445120199
   5     0.034844545757145
   6    0.0092795449204757
   7       1.4260591358954
   8      0.17880332925895
   9      0.04763453290078
  10     0.025592988902274
  11    -0.00060953763094283
  12    -0.0035553591128676
  13    -0.031927284527127
  14    -0.0022867358166786
  15       0.1108894089202
  16      0.16924150385328
  17     0.016921946509876
  18    0.0027678776178856
  19    -0.012269501402151
  20    -0.061161669661634
  21    -0.093176392294166
  22     -0.83029604004763
  23      0.34801973569242
  24      -0.1398532274396
  25    -0.037249882743767
  26      0.74242426613532
  27      -0.2480896996704
  28     -0.06608286948858
  29    0.0033733401401661
  30    -0.00084926982427809
  31    -0.0012680514608249
  32    -0.0014199767406672
  33    -0.003188524289502
  34      0.11089078456107
  35      0.16923098817391
  36     0.016921373487331
  37    -0.0037023987900841
  38      0.01202059133558
  39     0.060905839463849
  40     -0.29438826229028
  41     0.014034440739079
  42    0.0080412733618325
  43    0.0021416319891873
  44    -0.069097061011684
  45     -0.80958165324108
  46    0.0043114418150789
  47    0.0088209777264242
  48     0.002350187108269
 Sym= A
 Ene=    0.4705765219
 Spin= Alpha
 Occup=    0.00000
   1     0.029605665048748
   2      -0.1680227695099
   3      0.29740932315479
   4     -0.15585623352729
   5     -0.19925793234786
   6    -0.053076997639186
   7      0.14587830339321
   8       1.0842106602467
   9      0.28882312800088
  10     0.065593260859068
  11     0.012997188096699
  12    -0.048239750004185
  13      0.05463845826096
  14     0.048790809337485
  15      0.43327951964709
  16     -0.17533301601636
  17    -0.011027055322784
  18     0.059374418946826
  19    -0.014862883467678
  20    -0.026827318848316
  21    -0.083632105454702
  22     -0.11538816042462
  23     -0.14675205060416
  24    -0.018734550456984
  25    -0.0049932523970847
  26    -0.029676761956445
  27     -0.14106118660472
  28    -0.037576017885388
  29    -0.0014235368515981
  30    -0.005570138146483
  31    0.0082334106157532
  32    -0.026251200575021
  33    -0.020910703557544
  34      0.43327899492827
  35     -0.17537487487727
  36     -0.01102515575002
  37     0.044113885299651
  38     0.042427497320988
  39     -0.83741870389408
  40      0.14351225196508
  41    0.0004352011903527
  42    -0.0069765106738006
  43    -0.0018575073437555
  44      0.28412369975362
  45    -0.012446868877344
  46     0.050061476791291
  47     -0.03693257332954
  48    -0.0098387751096181
 Sym= A
 Ene=    0.4881052712
 Spin= Alpha
 Occup=    0.00000
   1    -1.0390758221102e-06
   2    1.7837906509845e-05
   3    -8.4006733838369e-05
   4    -9.4296571457898e-06
   5     0.057143173699279
   6     -0.21453880915086
   7    2.3312001638787e-05
   8      -0.3454641412103
   9       1.2969990751034
  10     0.043041945927675
  11     0.036946878705185
  12     0.086674931209139
  13     0.024850568379308
  14    -0.009841248025667
  15      0.75370904217133
  16    -0.020312295247887
  17    -0.0080287314357063
  18    -0.042562044096844
  19     0.010392372549653
  20    1.0119248705335e-06
  21    3.7221356923631e-06
  22    -9.1241856298724e-07
  23    -3.3306836401853e-06
  24     0.051420274430727
  25     -0.19303693754179
  26    -3.5943437716272e-06
  27      0.05494255414943
  28     -0.20625870655616
  29    0.0044724001760651
  30    -0.010270456032002
  31    0.0090060181219157
  32    0.0025817758396967
  33      0.00273565961704
  34       -0.753696843721
  35     0.020380151536306
  36     0.008027743283204
  37       0.0317518227164
  38     0.030188273926735
  39    1.2823389107363e-05
  40    -3.0348168726569e-06
  41    3.4026680760701e-08
  42    -0.021155060555408
  43     0.079419580687394
  44    6.2360710512106e-06
  45    -1.7594264256823e-06
  46    -8.1866596421984e-07
  47    0.00098524634498465
  48    -0.0036991257051063
 Sym= A
 Ene=    0.4988755469
 Spin= Alpha
 Occup=    0.00000
   1      0.17715526548006
   2      -1.0562619438235
   3       2.0824164395429
   4      -0.7560737945111
   5      0.15227149159687
   6     0.040557820526071
   7       1.0704223647128
   8     -0.54455751161199
   9     -0.14505894849439
  10     -0.02935891742007
  11    0.0011756765690341
  12    0.0093090492093188
  13     0.018379755988836
  14    0.0044166845591282
  15     0.013289933570897
  16     -0.40889874183402
  17    -0.043028048184716
  18    -0.013033490343551
  19    -0.005410290664329
  20     0.043777542227713
  21      0.21579624332755
  22     -0.83948532165543
  23     -0.25964529271601
  24     0.065421475854487
  25     0.017429040537367
  26     0.077967531370464
  27      0.18065562810407
  28     0.048120604375858
  29     0.025529037934876
  30    0.00089481549063588
  31    0.0057374709796873
  32    -0.064229448729263
  33    0.0033592823500385
  34     0.013301230746851
  35     -0.40889428421232
  36    -0.043029069886491
  37    -0.013999670202633
  38    -0.0017885254141632
  39      0.25978115888325
  40     -0.23574479663237
  41    -0.014425065692071
  42    -0.0051601774033593
  43    -0.0013757666947114
  44      0.37927255659428
  45       -0.594577155032
  46    -0.092197642201793
  47    -0.030210334088872
  48    -0.0080461734445236
 Sym= A
 Ene=    0.5936334561
 Spin= Alpha
 Occup=    0.00000
   1     0.006217031021391
   2     0.072028467024849
   3     -0.39030634634488
   4     -0.40094529798909
   5     -0.41004452469008
   6     -0.10921186089581
   7      0.42997190821386
   8       1.0659340250948
   9        0.283912121493
  10    -0.037190897267352
  11    -0.021657870486278
  12    0.0081745456253715
  13     0.035906472503715
  14    -0.081310674647903
  15    -0.047689245533121
  16      0.50487257784651
  17     0.023445165251393
  18     0.014793093471186
  19     0.045445309937852
  20     0.066550584896248
  21      0.24764216802208
  22     -0.39445414683434
  23     -0.15744306885166
  24     -0.28990470108337
  25    -0.077220514878465
  26      0.10770203323379
  27     -0.23583844865692
  28    -0.062817794075034
  29     0.047321873797939
  30      0.01362183112807
  31    -0.031999541048639
  32      0.02964590503514
  33      0.05114060914049
  34    -0.047694199639722
  35      0.50489621911863
  36     0.023447042674312
  37     0.035440433519165
  38    -0.032066075209529
  39     0.082451242984881
  40     -0.68071219542248
  41    -0.072603589728871
  42     0.035523327365401
  43    0.0094628153296954
  44      -1.0302283224579
  45      0.93968618026074
  46    -0.046978939595824
  47      0.13612909547182
  48     0.036260557582262
 Sym= A
 Ene=    0.6580177509
 Spin= Alpha
 Occup=    0.00000
   1      0.24702976165901
   2      -1.5091617172467
   3       3.6975139710385
   4      0.51200871774442
   5     -0.20967796002358
   6    -0.055941217907819
   7      -0.8961101940229
   8      0.48339081535508
   9      0.12893842762022
  10     0.020975731296966
  11    -0.0060207898832745
  12    0.0053751808231254
  13    -0.055103837691497
  14    -0.022571441526487
  15      0.34803437225336
  16      -1.1134147558649
  17    -0.0012001095950843
  18     -0.02793548829213
  19    -0.099756662601378
  20    0.0075043779605525
  21     0.028043570147392
  22    -0.091091416344991
  23    -0.044216906036293
  24    -0.0040636780456983
  25    -0.0010804139847442
  26     0.036584730382192
  27     -0.10484799907364
  28    -0.027946991938754
  29    0.0033581135400147
  30    0.0024705056449211
  31    -0.0044948585883345
  32     0.009862823359517
  33    0.0092661264792517
  34      0.34809914307947
  35      -1.1136840397118
  36    -0.0012132936552976
  37    -0.073873148922275
  38     0.072655929919838
  39      0.44457732546376
  40      -1.6685835445431
  41    -0.036244416351059
  42      0.14109671231107
  43      0.03758189776952
  44     -0.18445348529961
  45      0.23126137242852
  46     0.008718558047564
  47    0.0069377475086304
  48    0.0018487339519848
 Sym= A
 Ene=    0.6709184812
 Spin= Alpha
 Occup=    0.00000
   1    -2.1852170373685e-05
   2    0.00016528767373801
   3    -0.00046819181194678
   4    -4.7116056352863e-05
   5      0.24456257756585
   6     -0.91780777422302
   7    8.4941144753751e-05
   8     -0.47117645177267
   9       1.7682843657322
  10    -0.041468644210328
  11    -0.099664797502107
  12    -0.083518085339542
  13    -0.023934828085509
  14     0.026552902407615
  15     -0.41500331035521
  16       1.5730798133953
  17     0.075448423906117
  18     0.047587138326257
  19      0.11745508328691
  20    7.7525356487978e-06
  21    3.2408343728758e-05
  22    -1.4170043327017e-05
  23    -2.3756956309781e-06
  24    -0.0094992555696041
  25     0.035573793327117
  26    -9.9481293456308e-06
  27     0.049941244871273
  28     -0.18738036905611
  29    0.0019249192602439
  30     0.025518922280296
  31    0.0038709676100501
  32    0.0011134568461539
  33    -0.0067969943984766
  34      0.41504783165784
  35      -1.5729792873479
  36    -0.075451434493298
  37    -0.099699619354487
  38     0.078221564527094