[Molden Format]
[Title]
                                                                                
[Atoms] AU
 c     1    6 -.92431418043370E+01 0.62317498411784E+01 0.54802057614000E-03
 h     2    1 -.99817790546695E+01 0.57729999271642E+01 -.19116658449327E+01
 o     3    8 -.66009456341465E+01 0.62064086138472E+01 -.61983016887700E-02
 h     4    1 -.99817790546695E+01 0.48825609772406E+01 0.14312029777466E+01
 h     5    1 -.99021270985165E+01 0.81549241182100E+01 0.51283387570094E+00
 h     6    1 -.61030405948301E+01 0.44593946061531E+01 -.47154335987787E+00
[GTO]
    1 0
 s    5 1.00
 0.12384016938000E+04 0.55173650481097E-02
 0.18629004992000E+03 0.41088828555946E-01
 0.42251176346000E+02 0.18225382126490E+00
 0.11676557932000E+02 0.46828459437429E+00
 0.35930506482000E+01 0.44575817336002E+00
 s    1 1.00
 0.40245147363000E+00 0.10000000000000E+01
 s    1 1.00
 0.13090182668000E+00 0.10000000000000E+01
 p    3 1.00
 0.94680970621000E+01 0.56888332011037E-01
 0.20103545142000E+01 0.31294059336471E+00
 0.54771004707000E+00 0.76065016509135E+00
 p    1 1.00
 0.15268613795000E+00 0.10000000000000E+01
 d    1 1.00
 0.80000000000000E+00 0.10000000000000E+01
 
    2 0
 s    3 1.00
 0.13010701000000E+02 0.33485484812989E-01
 0.19622572000000E+01 0.23472187088125E+00
 0.44453796000000E+00 0.81377028525955E+00
 s    1 1.00
 0.12194962000000E+00 0.10000000000000E+01
 p    1 1.00
 0.80000000000000E+00 0.10000000000000E+01
 
    3 0
 s    5 1.00
 0.22661767785000E+04 -.53893503921743E-02
 0.34087010191000E+03 -.40234721388960E-01
 0.77363135167000E+02 -.18008184205526E+00
 0.21479644940000E+02 -.46828857657651E+00
 0.66589433124000E+01 -.44692617160187E+00
 s    1 1.00
 0.80975975668000E+00 0.10000000000000E+01
 s    1 1.00
 0.25530772234000E+00 0.10000000000000E+01
 p    3 1.00
 0.17721504317000E+02 0.62630248763161E-01
 0.38635505440000E+01 0.33331138482352E+00
 0.10480920883000E+01 0.74148638308122E+00
 p    1 1.00
 0.27641544411000E+00 0.10000000000000E+01
 d    1 1.00
 0.12000000000000E+01 0.10000000000000E+01
 
    4 0
 s    3 1.00
 0.13010701000000E+02 0.33485484812989E-01
 0.19622572000000E+01 0.23472187088125E+00
 0.44453796000000E+00 0.81377028525955E+00
 s    1 1.00
 0.12194962000000E+00 0.10000000000000E+01
 p    1 1.00
 0.80000000000000E+00 0.10000000000000E+01
 
    5 0
 s    3 1.00
 0.13010701000000E+02 0.33485484812989E-01
 0.19622572000000E+01 0.23472187088125E+00
 0.44453796000000E+00 0.81377028525955E+00
 s    1 1.00
 0.12194962000000E+00 0.10000000000000E+01
 p    1 1.00
 0.80000000000000E+00 0.10000000000000E+01
 
    6 0
 s    3 1.00
 0.13010701000000E+02 0.33485484812989E-01
 0.19622572000000E+01 0.23472187088125E+00
 0.44453796000000E+00 0.81377028525955E+00
 s    1 1.00
 0.12194962000000E+00 0.10000000000000E+01
 p    1 1.00
 0.80000000000000E+00 0.10000000000000E+01
 
[MO]
 Sym=     1a   
 Ene= -.19199905241603E+02
 Spin= Alpha
 Occup= 2.000000
     1 -.85906725035435E-04
     2 0.89746246545684E-04
     3 -.13761749848264E-01
     4 -.37702202031870E-03
     5 0.92936513435454E-04
     6 0.24761219315034E-04
     7 -.46991702028977E-02
     8 -.69277266447926E-03
     9 -.18457881139125E-03
    10 0.59365272837083E-03
    11 -.30130759779690E-03
    12 -.29234513057393E-03
    13 0.42220760838996E-04
    14 0.11248701499589E-04
    15 -.29725219285655E-05
    16 0.10573012196872E-02
    17 0.16307791785661E-02
    18 0.40827100683353E-03
    19 0.11329018132664E-03
    20 0.15507622176547E-03
    21 0.98893599276153E+00
    22 -.40256741952019E-01
    23 0.23468168555621E-01
    24 0.15571201940939E-02
    25 0.19331545486499E-02
    26 0.51492700732749E-03
    27 -.56111637392715E-02
    28 0.56894681506556E-04
    29 0.15156641632980E-04
    30 0.23934256667859E-03
    31 -.42879593873540E-03
    32 0.18945337205680E-03
    33 0.26052553937669E-03
    34 0.69394557187324E-04
    35 -.20467856650347E-03
    36 0.10573090061555E-02
    37 0.16307948210648E-02
    38 0.40826511821034E-03
    39 0.17542956165213E-03
    40 -.78175150345742E-04
    41 0.13711474816672E-02
    42 0.20409222885337E-02
    43 0.34984640795566E-03
    44 -.23089275583884E-03
    45 -.61498332355520E-04
    46 0.12261113808424E-02
    47 -.11903574634074E-02
    48 -.38750702211640E-03
    49 0.26780337772782E-02
    50 0.71333683895117E-03
 Sym=     2a   
 Ene= -.10272430714429E+02
 Spin= Alpha
 Occup= 2.000000
     1 0.98837608100235E+00
     2 0.47820217276337E-01
     3 -.28561217829364E-01
     4 0.16391249508783E-03
     5 -.49536400283251E-04
     6 -.13210074906354E-04
     7 0.34827162447923E-02
     8 0.23422324589713E-03
     9 0.62412123440026E-04
    10 -.94029522457675E-04
    11 0.26132538028035E-04
    12 0.67896984429640E-04
    13 -.94160780854181E-04
    14 -.25073987245722E-04
    15 -.13803424617668E-04
    16 -.32376038490823E-02
    17 0.66541215624424E-02
    18 -.93849445852737E-03
    19 -.56366731982916E-03
    20 -.20864873570280E-02
    21 -.48853336508246E-04
    22 0.78248702445237E-03
    23 -.39475442321436E-02
    24 0.50639378908750E-03
    25 -.41408935843961E-04
    26 -.11029221430974E-04
    27 0.41323570422078E-02
    28 0.12874778977067E-02
    29 0.34294338954914E-03
    30 -.80612847010777E-03
    31 0.24869204698963E-03
    32 0.55743642311813E-03
    33 -.69913329460709E-05
    34 -.18636407080443E-05
    35 -.10221440926593E-03
    36 -.32375083509573E-02
    37 0.66539739152216E-02
    38 -.93848804223832E-03
    39 -.15269002967014E-02
    40 0.15296410490721E-02
    41 -.34074821541483E-02
    42 0.62692906155286E-02
    43 -.89310805897505E-03
    44 0.21956791580767E-02
    45 0.58486615408899E-03
    46 0.14231037882246E-02
    47 0.10715932616153E-02
    48 -.10015726627972E-02
    49 0.16433509762054E-03
    50 0.43772971204291E-04
 Sym=     3a   
 Ene= -.10270741979822E+01
 Spin= Alpha
 Occup= 2.000000
     1 -.10192883190174E+00
     2 0.19644046968651E+00
     3 0.61237445551176E-02
     4 0.12127212841424E+00
     5 -.96828155038662E-02
     6 -.25790376572126E-02
     7 0.14975180404115E-01
     8 -.88445789245650E-02
     9 -.23560009775333E-02
    10 0.12745679184302E-01
    11 -.60327977283639E-02
    12 -.67128814559383E-02
    13 -.26293866828315E-02
    14 -.70036808160852E-03
    15 0.22513909197631E-03
    16 0.31989594981919E-01
    17 0.75304404558360E-02
    18 0.29053394385784E-02
    19 0.15595831230109E-02
    20 0.58924772857197E-02
    21 0.26465254098339E+00
    22 0.52641591187733E+00
    23 0.30468063610089E+00
    24 -.85119998397308E-01
    25 -.75584095490769E-01
    26 -.20133222705107E-01
    27 -.38149936399587E-01
    28 -.75350759860475E-02
    29 -.20071237145277E-02
    30 0.43562970457515E-02
    31 0.10329862505734E-03
    32 -.44595956708089E-02
    33 0.19722878751437E-03
    34 0.52554342926091E-04
    35 0.15106085851272E-02
    36 0.31989091563625E-01
    37 0.75304039626339E-02
    38 0.29052496420708E-02
    39 0.42840152073814E-02
    40 -.43358087899735E-02
    41 0.31281488968991E-01
    42 0.10890217671184E-01
    43 0.22925028225545E-02
    44 -.51008858155883E-02
    45 -.13587411622411E-02
    46 0.16906072206040E+00
    47 0.34877594098010E-02
    48 -.12429810216557E-01
    49 0.26208204334085E-01
    50 0.69809823445692E-02
 Sym=     4a   
 Ene= -.68188597855535E+00
 Spin= Alpha
 Occup= 2.000000
     1 -.22589178758559E+00
     2 0.45989649625436E+00
     3 0.11374657353219E+00
     4 -.54833959138995E-01
     5 0.23162499211619E-01
     6 0.61685069724585E-02
     7 -.29503717600013E-01
     8 0.11588417862933E-02
     9 0.30823608540425E-03
    10 -.10673859409421E-03
    11 0.21673504681154E-03
    12 -.10999645271733E-03
    13 0.21499167732228E-02
    14 0.57271012903102E-03
    15 0.10824729690823E-03
    16 0.16882215255066E+00
    17 0.32459517110727E-01
    18 0.47870989537363E-02
    19 0.47092583823222E-02
    20 0.17283690162398E-01
    21 -.86994503816943E-01
    22 -.18569963510922E+00
    23 -.10551968197338E+00
    24 -.17371374046839E+00
    25 0.11153973214125E+00
    26 0.29709977336184E-01
    27 -.93048349955125E-01
    28 0.32694514356706E-01
    29 0.87084426886737E-02
    30 0.64373549307914E-02
    31 -.51912403118466E-02
    32 -.12461146189447E-02
    33 0.14660916076869E-02
    34 0.39054161749191E-03
    35 -.13060742182499E-02
    36 0.16881883280039E+00
    37 0.32459107452034E-01
    38 0.47869177396953E-02
    39 0.12682695758642E-01
    40 -.12650808747097E-01
    41 0.18414425627527E+00
    42 0.38345457984452E-01
    43 0.45106994684513E-02
    44 -.18723405076104E-01
    45 -.49874265031840E-02
    46 -.17151553003267E+00
    47 -.24503801470351E-01
    48 0.17290172451424E-02
    49 -.20871189608720E-01
    50 -.55593665485810E-02
 Sym=     5a   
 Ene= -.51312321986200E+00
 Spin= Alpha
 Occup= 2.000000
     1 0.34958156156492E-01
     2 -.64546614412376E-01
     3 -.39832222349899E-01
     4 0.24751969866779E+00
     5 0.18545809040281E+00
     6 0.49405746872597E-01
     7 0.83093026057904E-01
     8 0.93179705098544E-01
     9 0.24821943786064E-01
    10 0.12497304003187E-01
    11 -.45983154350492E-02
    12 -.78989885681376E-02
    13 0.69130930748652E-02
    14 0.18413832690558E-02
    15 0.10926045649760E-02
    16 -.15345721287134E+00
    17 -.37585834609560E-01
    18 -.44311236434705E-03
    19 0.15408203966280E-02
    20 -.10044430145185E-01
    21 0.53013875526987E-01
    22 0.11542856826806E+00
    23 0.13499471727469E+00
    24 -.22678731055378E+00
    25 0.33574808086190E+00
    26 0.89433920867827E-01
    27 -.10027100696017E+00
    28 0.16024454095159E+00
    29 0.42685003750134E-01
    30 0.72914495589211E-02
    31 -.75374581148109E-02
    32 0.24600855588981E-03
    33 -.31312931568766E-02
    34 -.83414869507680E-03
    35 -.25768595388649E-02
    36 -.15344953464678E+00
    37 -.37583947741579E-01
    38 -.44292055965071E-03
    39 -.36596017073567E-02
    40 0.94798160372023E-02
    41 0.25385971927364E-01
    42 -.30333814879054E-02
    43 0.56907110863311E-02
    44 0.20865998094991E-02
    45 0.55591591991139E-03
    46 -.28351796798759E+00
    47 -.81635789896686E-01
    48 0.78460753159185E-02
    49 -.23863362608805E-01
    50 -.63562970222270E-02
 Sym=     6a   
 Ene= -.45195188353605E+00
 Spin= Alpha
 Occup= 2.000000
     1 -.65630027674884E-06
     2 0.18291460528622E-05
     3 0.73585878918752E-07
     4 -.95418516484447E-05
     5 -.10558682072502E+00
     6 0.39642969058038E+00
     7 -.41894799021759E-05
     8 -.43375896661050E-01
     9 0.16285673828969E+00
    10 -.48066336853845E-06
    11 0.31569070125133E-02
    12 -.31564263491447E-02
    13 -.67939184587205E-03
    14 0.25499174453124E-02
    15 -.63561526428313E-02
    16 -.25861627422917E+00
    17 -.95766653752395E-01
    18 -.77744504371491E-02
    19 -.65114443437951E-02
    20 -.73363631462815E-02
    21 -.64661998716151E-07
    22 -.39649739773937E-06
    23 0.10419492246526E-06
    24 0.10607284284581E-04
    25 -.69489379809920E-01
    26 0.26086468820220E+00
    27 0.55027222569109E-05
    28 -.45743772782789E-01
    29 0.17172811768431E+00
    30 -.21043347978717E-06
    31 0.17085388981898E-02
    32 -.17083284647100E-02
    33 0.21845253716846E-02
    34 -.82020379919185E-02
    35 -.34400969965033E-02
    36 0.25861641848185E+00
    37 0.95767991079019E-01
    38 0.77741544690362E-02
    39 0.92985632790657E-02
    40 -.31252533122241E-02
    41 0.11904799454016E-04
    42 0.36248916499936E-05
    43 0.37932827105411E-07
    44 -.29203194888224E-02
    45 0.10961225379613E-01
    46 0.63221105498804E-05
    47 0.26469080432672E-05
    48 0.18627799720410E-06
    49 -.32182047752785E-02
    50 0.12084216276247E-01
 Sym=     7a   
 Ene= -.43476112701661E+00
 Spin= Alpha
 Occup= 2.000000
     1 0.48928455841310E-02
     2 -.16554773062613E-01
     3 -.40150677775090E-02
     4 -.25831983318993E+00
     5 0.30186557871134E+00
     6 0.80394859504962E-01
     7 -.96382116743293E-01
     8 0.15351859848322E+00
     9 0.40887008989068E-01
    10 -.12092699647204E-01
    11 0.98267901105305E-02
    12 0.22659095366730E-02
    13 0.12635530433581E-02
    14 0.33645266377299E-03
    15 0.25034381060544E-02
    16 -.38193298072276E-01
    17 -.73515860010267E-02
    18 -.58417926325020E-02
    19 0.69474832020341E-02
    20 -.49454401897529E-03
    21 0.46566833932215E-01
    22 0.89785193858922E-01
    23 0.12595897797893E+00
    24 0.36029445584504E+00
    25 0.96378902988034E-01
    26 0.25663895933798E-01
    27 0.20870788001923E+00
    28 0.75401651111905E-01
    29 0.20078992849071E-01
    30 -.55503224265187E-02
    31 0.28187894596286E-02
    32 0.27315329668902E-02
    33 -.10108802779698E-01
    34 -.26924030210693E-02
    35 0.29016158988953E-04
    36 -.38209097149533E-01
    37 -.73577997125508E-02
    38 -.58421924942315E-02
    39 0.57803018433763E-02
    40 0.38851547846659E-02
    41 0.29753383523807E+00
    42 0.95256885538086E-01
    43 0.15348182592764E-02
    44 -.12025198325519E-01
    45 -.32035750953307E-02
    46 0.58703916274860E-01
    47 0.46513931556488E-01
    48 0.18336123080647E-01
    49 0.93120786268682E-02
    50 0.24799840192230E-02
 Sym=     8a   
 Ene= -.33720509393022E+00
 Spin= Alpha
 Occup= 2.000000
     1 0.15276851557254E-01
     2 -.41580695311576E-01
     3 0.21646384962329E-01
     4 -.13358318303901E+00
     5 -.26019220788046E+00
     6 -.69305558662604E-01
     7 -.31518902112872E-01
     8 -.72368258991672E-01
     9 -.19274454191802E-01
    10 -.41044081528536E-02
    11 -.34798118892601E-02
    12 0.75842200421136E-02
    13 0.13805426913889E-01
    14 0.36775087366381E-02
    15 -.36629286488711E-02
    16 0.15926067071045E+00
    17 0.94157076657114E-01
    18 -.14688052695653E-02
    19 -.83141260746548E-02
    20 0.74833056729928E-02
    21 0.78654235972503E-01
    22 0.15649303464796E+00
    23 0.25009747388164E+00
    24 0.23514737485200E+00
    25 0.36378669961153E+00
    26 0.96907028137599E-01
    27 0.18097842556404E+00
    28 0.23273494868116E+00
    29 0.61997268547230E-01
    30 0.66407530764332E-04
    31 -.47781114915938E-02
    32 0.47117039608294E-02
    33 -.34162243405050E-02
    34 -.91007056063026E-03
    35 -.31418282902364E-02
    36 0.15926198182658E+00
    37 0.94157860098879E-01
    38 -.14686539752514E-02
    39 -.34898164303095E-02
    40 -.10627630689944E-01
    41 -.25450523714663E+00
    42 -.14100763789779E+00
    43 -.56639892653561E-02
    44 0.65189132106495E-02
    45 0.17365750312736E-02
    46 -.21526367214897E+00
    47 -.71989581146324E-01
    48 0.17198718245271E-01
    49 -.82622908317491E-02
    50 -.22004473379097E-02
 Sym=     9a   
 Ene= -.27583427146564E+00
 Spin= Alpha
 Occup= 2.000000
     1 -.17193574379578E-06
     2 0.17867244354675E-06
     3 -.49315366441713E-06
     4 0.77645248126665E-06
     5 0.47989613013688E-01
     6 -.18015501041872E+00
     7 0.30643896890135E-06
     8 0.76913331135500E-02
     9 -.28868101032342E-01
    10 0.20511666315101E-08
    11 -.21795852569787E-02
    12 0.21795832058120E-02
    13 -.48459750218904E-02
    14 0.18192680420042E-01
    15 0.43890603702176E-02
    16 0.21320104163356E+00
    17 0.14066499323921E+00
    18 -.35640167121567E-03
    19 0.50463577798362E-02
    20 0.44039650287277E-02
    21 -.27316338014636E-06
    22 -.55313159429057E-06
    23 -.88578929099875E-06
    24 -.23899499487989E-05
    25 -.14933409417320E+00
    26 0.56062693280431E+00
    27 -.20089608294824E-05
    28 -.11709567306121E+00
    29 0.43959781861090E+00
    30 0.24598177909493E-07
    31 0.31333509893158E-02
    32 -.31333755874937E-02
    33 0.11845195953316E-02
    34 -.44469066221936E-02
    35 -.63096116825143E-02
    36 -.21320435582033E+00
    37 -.14066783201970E+00
    38 0.35647582752699E-03
    39 -.65685352631716E-02
    40 0.13105799087391E-02
    41 0.69652565649868E-06
    42 0.29681142316973E-06
    43 0.91129938323276E-07
    44 0.23174536531620E-02
    45 -.86999548087678E-02
    46 0.10835098414689E-05
    47 0.50164860813706E-06
    48 -.11461969736113E-06
    49 -.70285087594628E-02
    50 0.26386784322440E-01
 Sym=    10a   
 Ene= 0.61514646904226E-01
 Spin= Alpha
 Occup= 0.000000
     1 0.59500656310752E-01
     2 -.78737000495799E-01
     3 -.13180716306798E+01
     4 0.17747943302215E+00
     5 0.53485721361241E-01
     6 0.14243242536717E-01
     7 0.43214078765750E+00
     8 0.13486206620383E+00
     9 0.35915011486623E-01
    10 -.69651894353169E-02
    11 0.42312819850611E-02
    12 0.27339074502559E-02
    13 0.42145339286207E-02
    14 0.11225602354097E-02
    15 0.49567709023394E-03
    16 0.31627444503896E-01
    17 0.72856873112823E+00
    18 0.65107389806828E-02
    19 -.45668270226102E-02
    20 -.56055964767926E-02
    21 -.79697638205565E-01
    22 -.14197417432659E+00
    23 -.66489776301032E+00
    24 -.23145777090209E-01
    25 0.20090976011419E+00
    26 0.53516713309636E-01
    27 -.60052100886659E-01
    28 0.29954145040463E+00
    29 0.79789524535772E-01
    30 -.18823600468818E-03
    31 -.21593726084828E-02
    32 0.23476086131710E-02
    33 -.30774285937018E-02
    34 -.81968563172564E-03
    35 -.14921321010449E-02
    36 0.31629681213939E-01
    37 0.72857674318772E+00
    38 0.65107250374243E-02
    39 -.67501381186682E-02
    40 0.25909534041520E-02
    41 0.10541663961897E-01
    42 0.40928356010265E+00
    43 0.94367116996865E-02
    44 0.56685619731407E-02
    45 0.15098798030085E-02
    46 0.13913344911647E+00
    47 0.10185833089979E+01
    48 0.15443764296576E-03
    49 -.46836246729322E-02
    50 -.12474066503814E-02
 Sym=    11a   
 Ene= 0.10799264201923E+00
 Spin= Alpha
 Occup= 0.000000
     1 0.13446744011212E+00
     2 -.24909875731587E+00
     3 -.22445319272456E+01
     4 0.49556851951334E-01
     5 -.54375766169737E-01
     6 -.14488793546237E-01
     7 0.20449944520661E+00
     8 -.17681831565848E+00
     9 -.47110902728254E-01
    10 0.30864035076851E-02
    11 -.22655773107463E-02
    12 -.82082619693884E-03
    13 -.35465902974642E-02
    14 -.94472048941996E-03
    15 -.47831729701298E-03
    16 0.19857970813743E-01
    17 0.96746118997597E+00
    18 -.60425001325721E-02
    19 0.19899162985497E-02
    20 -.35092600319866E-02
    21 0.59043857137392E-01
    22 0.87361318623396E-01
    23 0.64695708749091E+00
    24 -.50882526191659E-01
    25 -.14461098698609E+00
    26 -.38518549165612E-01
    27 -.88387512254255E-01
    28 -.20043159962312E+00
    29 -.53386267356350E-01
    30 -.29928535732285E-02
    31 0.26240707448067E-02
    32 0.36878282842177E-03
    33 0.37245959146883E-02
    34 0.99216661229233E-03
    35 0.74662685238301E-03
    36 0.19859402088348E-01
    37 0.96747479467468E+00
    38 -.60424242366483E-02
    39 -.19408701099816E-04
    40 0.40340803420011E-02
    41 0.43694150203531E-01
    42 0.12935272611694E+01
    43 -.78966851649079E-02
    44 0.34304710874509E-02
    45 0.91376061986991E-03
    46 -.11363055994425E+00
    47 -.74075643901454E+00
    48 -.11421847518842E-01
    49 0.81113747312993E-03
    50 0.21612917486061E-03
 Sym=    12a   
 Ene= 0.14735844043732E+00
 Spin= Alpha
 Occup= 0.000000
     1 -.10004370125794E-04
     2 0.94700222410408E-05
     3 0.18107590082652E-03
     4 0.28882547361578E-04
     5 -.10545664326908E+00
     6 0.39480515552252E+00
     7 0.15260138060006E-03
     8 -.31820881382988E+00
     9 0.11911720823706E+01
    10 -.32338126628472E-05
    11 -.28590459904361E-02
    12 0.28622798030990E-02
    13 -.81721395491974E-03
    14 0.30551120455212E-02
    15 0.57751392662811E-02
    16 0.65066502876228E-01
    17 0.16363885887289E+01
    18 -.59869884565553E-03
    19 -.76027476294959E-02
    20 -.40761733265141E-02
    21 -.15647326966179E-04
    22 -.24062172995150E-04
    23 -.20072979368694E-03
    24 0.49281681668613E-04
    25 0.18535344517758E-01
    26 -.69332442548533E-01
    27 0.91068873929802E-04
    28 0.45769453029689E-01
    29 -.17127672145353E+00
    30 0.71321352716367E-06
    31 -.16740220133773E-02
    32 0.16733087998502E-02
    33 0.14450967395562E-02
    34 -.54080683996153E-02
    35 0.33694391129778E-02
    36 -.65151457830682E-01
    37 -.16377636594253E+01
    38 0.60291762353686E-03
    39 0.86137422573991E-02
    40 0.23312816366780E-03
    41 0.89816547290620E-04
    42 0.13002372658894E-02
    43 0.12594005928334E-05
    44 -.27439447829712E-02
    45 0.10325303271158E-01
    46 -.66073150063771E-05
    47 0.83226933314185E-04
    48 -.59214485422876E-05
    49 0.34079140129712E-02
    50 -.12787989765409E-01
 Sym=    13a   
 Ene= 0.14829034931092E+00
 Spin= Alpha
 Occup= 0.000000
     1 0.16203680949953E-01
     2 -.17872163620450E-01
     3 -.31230870592794E+00
     4 -.40915325083500E-01
     5 0.37284025666836E+00
     6 0.99620832582462E-01
     7 -.21122276053771E+00
     8 0.11742042240586E+01
     9 0.31370853636363E+00
    10 0.46872855211205E-02
    11 -.96399216437335E-02
    12 0.49526361226130E-02
    13 0.43547551510129E-02
    14 0.11623841378560E-02
    15 -.48257546665509E-02
    16 0.54689225655684E-01
    17 0.97183871204481E+00
    18 -.31884939760519E-02
    19 0.95848832741635E-02
    20 -.42834351404142E-02
    21 0.22062358972414E-01
    22 0.33985872562787E-01
    23 0.28190044945790E+00
    24 -.71113024448097E-01
    25 -.84127149514019E-01
    26 -.22462709454920E-01
    27 -.13177176180278E+00
    28 -.18438402238684E+00
    29 -.49248202782454E-01
    30 -.96518851647066E-03
    31 0.89901891377774E-03
    32 0.66169602692912E-04
    33 -.57644670987743E-02
    34 -.15396912606963E-02
    35 0.27894315752947E-03
    36 0.54597411732574E-01
    37 0.96943209096144E+00
    38 -.31875041957270E-02
    39 0.61963338653828E-02
    40 0.84838351116903E-02
    41 -.12046643220403E+00
    42 -.17671824170306E+01
    43 -.18638427921984E-02
    44 -.82805484704447E-02
    45 -.21977844999244E-02
    46 0.87703664915235E-02
    47 -.10545544238111E+00
    48 0.79024300988193E-02
    49 -.21167847659924E-02
    50 -.57381603251100E-03
 Sym=    14a   
 Ene= 0.20840290330189E+00
 Spin= Alpha
 Occup= 0.000000
     1 -.61598101273805E-01
     2 0.11053348900571E+00
     3 0.98856117679235E+00
     4 0.28795698863644E+00
     5 0.34561436579892E-01
     6 0.92090465247622E-02
     7 0.14263288442381E+01
     8 0.17888182644093E+00
     9 0.47661848980809E-01
    10 -.23340316443545E-01
    11 0.85741099635964E-02
    12 0.14766206479948E-01
    13 -.13128067469390E-02
    14 -.34975749639170E-03
    15 -.20498746994326E-02
    16 0.11079500791589E+00
    17 0.16784312496666E+00
    18 0.16885019415341E-01
    19 0.27629204885839E-02
    20 -.12207957793796E-01
    21 -.61230424124606E-01
    22 -.93249598675819E-01
    23 -.83132220329256E+00
    24 0.34796229678598E+00
    25 -.13968339907232E+00
    26 -.37206440830413E-01
    27 0.74278411029844E+00
    28 -.24794168102069E+00
    29 -.66043436309686E-01
    30 -.16805397822049E-02
    31 -.26694649761667E-03
    32 0.19474862798215E-02
    33 -.18358790498418E-02
    34 -.48906044882137E-03
    35 -.73308898924768E-03
    36 0.11079683514198E+00
    37 0.16780820443202E+00
    38 0.16884857603130E-01
    39 -.36755808442626E-02
    40 0.11964513465489E-01
    41 0.60630471169741E-01
    42 -.29507240756797E+00
    43 0.13984400676060E-01
    44 0.79901290641431E-02
    45 0.21284188332549E-02
    46 -.68902707743431E-01
    47 -.80911023453276E+00
    48 0.42843308159713E-02
    49 0.88141549736327E-02
    50 0.23477595683748E-02
 Sym=    15a   
 Ene= 0.47055030773466E+00
 Spin= Alpha
 Occup= 0.000000
     1 0.29787494552082E-01
     2 -.16926458184850E+00
     3 0.30043704203739E+00
     4 -.15675947094669E+00
     5 -.19940780108975E+00
     6 -.53105582408198E-01
     7 0.14673941654115E+00
     8 0.10846351908053E+01
     9 0.28886450191321E+00
    10 0.84351062062675E-02
    11 -.46234193038868E-01
    12 0.37799086832600E-01
    13 0.28101120297782E-01
    14 0.74844113666241E-02
    15 -.27823917119228E-01
    16 0.43293939641135E+00
    17 -.17551456564934E+00
    18 -.11051267658650E-01
    19 0.59318104197536E-01
    20 -.14723685376498E-01
    21 -.26770774181711E-01
    22 -.83316395738893E-01
    23 -.11658204736022E+00
    24 -.14716494880146E+00
    25 -.18767386887179E-01
    26 -.49916523956711E-02
    27 -.29582853229260E-01
    28 -.14080643618980E+00
    29 -.37497165878624E-01
    30 -.12760000416532E-01
    31 0.13554667025884E-01
    32 -.79466660935260E-03
    33 -.12058816757975E-01
    34 -.32118929727041E-02
    35 0.47502040677048E-02
    36 0.43301249659986E+00
    37 -.17554853048627E+00
    38 -.11050861136566E-01
    39 0.44131746333145E-01
    40 0.42277012322467E-01
    41 -.83727104886781E+00
    42 0.14217188722378E+00
    43 0.31644183364188E-03
    44 -.68300400675306E-02
    45 -.18225551714506E-02
    46 0.28439474755333E+00
    47 -.12580490633431E-01
    48 0.49982539697907E-01
    49 -.36899328429511E-01
    50 -.98288984422283E-02
 Sym=    16a   
 Ene= 0.48803732998965E+00
 Spin= Alpha
 Occup= 0.000000
     1 -.11248622832329E-06
     2 0.84871865408079E-05
     3 -.53273012617709E-04
     4 -.13743061729054E-04
     5 0.57253976538962E-01
     6 -.21498300374327E+00
     7 0.25485436178877E-04
     8 -.34572328555210E+00
     9 0.12981698247522E+01
    10 0.51403001703927E-06
    11 -.24824794017428E-01
    12 0.24824279987411E-01
    13 -.56601075451755E-02
    14 0.21255302392794E-01
    15 0.49983823038541E-01
    16 0.75353662303328E+00
    17 -.19356150249146E-01
    18 -.79197660572768E-02
    19 -.42486105661261E-01
    20 0.10557181828324E-01
    21 -.81967526518952E-06
    22 -.25281958830264E-05
    23 -.50175989838749E-05
    24 -.87418305298416E-05
    25 0.51427201538295E-01
    26 -.19307251010882E+00
    27 -.31332744806184E-05
    28 0.54958039094822E-01
    29 -.20634905826477E+00
    30 -.70086502359113E-06
    31 -.25790689320526E-02
    32 0.25797697970762E-02
    33 0.15750272099380E-02
    34 -.59156899873854E-02
    35 0.51952125315375E-02
    36 -.75348777177808E+00
    37 0.19394115396840E-01
    38 0.79182414734020E-02
    39 0.31609046195713E-01
    40 0.30298098588927E-01
    41 -.32918284914399E-04
    42 0.49019461515144E-05
    43 0.54391739447851E-06
    44 -.21128752547630E-01
    45 0.79319181242156E-01
    46 0.16343443029262E-04
    47 -.15770736964269E-05
    48 0.25258811109420E-05
    49 0.98364066909432E-03
    50 -.36999562035897E-02
 Sym=    17a   
 Ene= 0.49888187359442E+00
 Spin= Alpha
 Occup= 0.000000
     1 -.17708992884605E+00
     2 0.10562947399531E+01
     3 -.20835134104097E+01
     4 0.75610520387502E+00
     5 -.15246107048101E+00
     6 -.40610172510726E-01
     7 -.10704059882194E+01
     8 0.54533747354256E+00
     9 0.14526395458102E+00
    10 -.17702918283222E-01
    11 0.68869652723722E-03
    12 0.17014221755985E-01
    13 -.24965636098710E-02
    14 -.66489895535025E-03
    15 -.54047259669399E-02
    16 -.12358367805482E-01
    17 0.40865114010734E+00
    18 0.43088287047214E-01
    19 0.13054048118859E-01
    20 0.53077652317431E-02
    21 -.43781904349384E-01
    22 -.21578937835012E+00
    23 0.83962504235329E+00
    24 0.25951581651686E+00
    25 -.65382135027546E-01
    26 -.17416359163941E-01
    27 -.78159944649147E-01
    28 -.18067180963784E+00
    29 -.48125764873173E-01
    30 0.39491212660720E-01
    31 -.24733467838100E-01
    32 -.14757744822621E-01
    33 -.19618828861090E-02
    34 -.52252362206160E-03
    35 -.33025763925501E-02
    36 -.12362584581780E-01
    37 0.40864678416039E+00
    38 0.43088088609252E-01
    39 0.13965774215831E-01
    40 0.18885430597110E-02
    41 -.26005053642849E+00
    42 0.23630081093464E+00
    43 0.14507086826394E-01
    44 0.52624867112686E-02
    45 0.14023490735664E-02
    46 -.37873388225464E+00
    47 0.59455764693296E+00
    48 0.92246054168645E-01
    49 0.30117809711338E-01
    50 0.80223574020399E-02
 Sym=    18a   
 Ene= 0.59366830635860E+00
 Spin= Alpha
 Occup= 0.000000
     1 0.61621292313747E-02
     2 0.71977739769650E-01
     3 -.38887334521299E+00
     4 -.40064933122679E+00
     5 -.41028032887508E+00
     6 -.10927343127636E+00
     7 0.42939235040302E+00
     8 0.10659962516636E+01
     9 0.28392657194444E+00
    10 0.28703068939784E-01
    11 -.71877475348665E-02
    12 -.21515321404918E-01
    13 -.47017962451274E-01
    14 -.12523617310163E-01
    15 0.47437129671846E-02
    16 -.48301425034091E-01
    17 0.50479457716764E+00
    18 0.23427331684364E-01
    19 0.14743809480122E-01
    20 0.45498372054732E-01
    21 0.66473775640267E-01
    22 0.24723470019291E+00
    23 -.39385466053443E+00
    24 -.15738551668615E+00
    25 -.28993741508020E+00
    26 -.77229964569023E-01
    27 0.10803647813341E+00
    28 -.23592568947587E+00
    29 -.62840125675052E-01
    30 0.11659259923814E-02
    31 -.28482906854080E-01
    32 0.27316980861698E-01
    33 0.29538607626050E-01
    34 0.78678936693600E-02
    35 -.18473283798237E-01
    36 -.48307947799385E-01
    37 0.50482208286666E+00
    38 0.23429372947526E-01
    39 0.35424600271070E-01
    40 -.32136736523263E-01
    41 0.82503897958841E-01
    42 -.68146249426593E+00
    43 -.72690423186175E-01
    44 0.35503261284518E-01
    45 0.94575305658564E-02
    46 -.10303489562222E+01
    47 0.93937662980469E+00
    48 -.47115458559485E-01
    49 0.13598270205731E+00
    50 0.36221225852287E-01
 Sym=    19a   
 Ene= 0.65814202433303E+00
 Spin= Alpha
 Occup= 0.000000
     1 -.24724226351533E+00
     2 0.15119007487268E+01
     3 -.37060603924000E+01
     4 -.51212765048829E+00
     5 0.20998809402077E+00
     6 0.56047464755919E-01
     7 0.89633421359549E+00
     8 -.48400798420190E+00
     9 -.12914844858588E+00
    10 0.33607187050003E-01
    11 -.21524194091799E-01
    12 -.12082992958204E-01
    13 0.13068821280498E-01
    14 0.34875237149442E-02
    15 -.31200456103894E-02
    16 -.34643950141221E+00
    17 0.11141043521674E+01
    18 0.11642858858533E-02
    19 0.27932594980345E-01
    20 0.99608038940332E-01