[Molden Format]

[Atoms] AU
C    1   6         -9.2431418498         6.2317498718         0.0005480206 
H    2   1         -9.9817791038         5.7729999556        -1.9116658543 
O    3   8         -6.6009456666         6.2064086444        -0.0061983017 
H    4   1         -9.9817791038         4.8825610013         1.4312029848 
H    5   1         -9.9021271472         8.1549241583         0.5128338782 
H    6   1         -6.1030406249         4.4593946281        -0.4715433622 
[GTO]
  1 0
s   5 1.0 
     1238.4016938000         0.8208956682
      186.2900499200         1.4766449896
       42.2511763460         2.1526124058
       11.6765579320         2.1081722461
        3.5930506482         0.8290999933
s   1 1.0 
        0.4024514736         0.3601183351
s   1 1.0 
        0.1309018267         0.1551027052
p   3 1.0 
        9.4680970621         1.3467645142
        2.0103545142         1.0678070931
        0.5477100471         0.5108735714
p   1 1.0 
        0.1526861379         0.1360471976
d   1 1.0 
        0.8000000000         1.9292013661

  2 0
s   3 1.0 
       13.0107010000         0.1634903809
        1.9622572000         0.2773515510
        0.4445379600         0.3157501452
s   1 1.0 
        0.1219496200         0.1470772262
p   1 1.0 
        0.8000000000         1.0784563492

  3 0
s   5 1.0 
     2266.1767785000        -1.2615859742
      340.8701019100        -2.2748500410
       77.3631351670        -3.3479623295
       21.4796449400        -3.3299980531
        6.6589433124        -1.3203828288
s   1 1.0 
        0.8097597567         0.6083832301
s   1 1.0 
        0.2553077223         0.2559811911
p   3 1.0 
       17.7215043170         3.2460107647
        3.8635505440         2.5734959178
        1.0480920883         1.1208372892
p   1 1.0 
        0.2764154441         0.2856886381
d   1 1.0 
        1.2000000000         3.9222679946

  4 0
s   3 1.0 
       13.0107010000         0.1634903809
        1.9622572000         0.2773515510
        0.4445379600         0.3157501452
s   1 1.0 
        0.1219496200         0.1470772262
p   1 1.0 
        0.8000000000         1.0784563492

  5 0
s   3 1.0 
       13.0107010000         0.1634903809
        1.9622572000         0.2773515510
        0.4445379600         0.3157501452
s   1 1.0 
        0.1219496200         0.1470772262
p   1 1.0 
        0.8000000000         1.0784563492

  6 0
s   3 1.0 
       13.0107010000         0.1634903809
        1.9622572000         0.2773515510
        0.4445379600         0.3157501452
s   1 1.0 
        0.1219496200         0.1470772262
p   1 1.0 
        0.8000000000         1.0784563492

[5D]
[7F]
[9G]
[MO]
 Sym=     1a
 Ene= -1.91997207708344E+01
 Spin= Alpha
 Occup= 2.000000
  1       0.000085983765
  2      -0.000090033437
  3       0.013756709495
  4       0.000376370602
  5      -0.000092929979
  6      -0.000024760057
  7       0.004697354560
  8       0.000692484108
  9       0.000184510813
 10       0.000506499435
 11      -0.000019510295
 12       0.000005118586
 13      -0.000895098692
 14      -0.000073230407
 15      -0.001056970379
 16      -0.001630184757
 17      -0.000408148435
 18      -0.000113263394
 19      -0.000155040196
 20      -0.988937317145
 21       0.040250385383
 22      -0.023459461594
 23      -0.001557128749
 24      -0.001933286569
 25      -0.000514929691
 26       0.005609476930
 27      -0.000057707774
 28      -0.000015394263
 29      -0.000329711215
 30      -0.000120577256
 31       0.000355269614
 32      -0.000668078689
 33      -0.000452656906
 34      -0.001056980015
 35      -0.001630205926
 36      -0.000408140108
 37      -0.000175389650
 38       0.000078155323
 39      -0.001370652977
 40      -0.002040098876
 41      -0.000349615628
 42       0.000230824913
 43       0.000061478450
 44      -0.001227584497
 45       0.001189818088
 46       0.000387444328
 47      -0.002678319765
 48      -0.000713410378
 Sym=     1a
 Ene= -1.02723696840544E+01
 Spin= Alpha
 Occup= 2.000000
  1      -0.988380912652
  2      -0.047796568729
  3       0.028548839344
  4      -0.000164160782
  5       0.000050010231
  6       0.000013321591
  7      -0.003480887019
  8      -0.000233611846
  9      -0.000062256414
 10      -0.000117286582
 11       0.000043157888
 12       0.000024190457
 13       0.000118682316
 14       0.000162060289
 15       0.003234792608
 16      -0.006650942498
 17       0.000937275357
 18       0.000562890586
 19       0.002083652557
 20       0.000048939253
 21      -0.000780411414
 22       0.003941984709
 23      -0.000506763224
 24       0.000041458456
 25       0.000011041521
 26      -0.004127817357
 27      -0.001286178404
 28      -0.000342590735
 29      -0.000964516583
 30       0.000003189407
 31       0.000176842321
 32       0.001053785943
 33       0.000011965903
 34       0.003234728963
 35      -0.006650811214
 36       0.000937273798
 37       0.001524821229
 38      -0.001527574915
 39       0.003403622409
 40      -0.006266883335
 41       0.000891822079
 42      -0.002191928460
 43      -0.000583867621
 44      -0.001421667442
 45      -0.001070708627
 46       0.001000417366
 47      -0.000164087453
 48      -0.000043710432
 Sym=     1a
 Ene= -1.02709630988338E+00
 Spin= Alpha
 Occup= 2.000000
  1       0.101939830408
  2      -0.196489246355
  3      -0.006156397226
  4      -0.121270912207
  5       0.009683670843
  6       0.002579287799
  7      -0.014964920011
  8       0.008818592548
  9       0.002349576887
 10       0.011625360387
 11       0.001214704156
 12      -0.000392290912
 13      -0.018767672475
 14       0.004560123510
 15      -0.031985703669
 16      -0.007529126096
 17      -0.002906106029
 18      -0.001556342282
 19      -0.005882215652
 20      -0.264657079453
 21      -0.526454083732
 22      -0.304639229300
 23       0.085136394338
 24       0.075604109559
 25       0.020138473097
 26       0.038142957541
 27       0.007510801053
 28       0.001999772625
 29       0.007697881232
 30      -0.000097638895
 31      -0.002604874921
 32      -0.004248056097
 33      -0.000366620224
 34      -0.031985227919
 35      -0.007529543183
 36      -0.002905933292
 37      -0.004275996663
 38       0.004328448827
 39      -0.031270267368
 40      -0.010857613863
 41      -0.002291501361
 42       0.005085356506
 43       0.001354626039
 44      -0.169049666418
 45      -0.003496554368
 46       0.012432647526
 47      -0.026188721005
 48      -0.006975344513
 Sym=     1a
 Ene= -6.81910368826969E-01
 Spin= Alpha
 Occup= 2.000000
  1       0.225904213180
  2      -0.459969428796
  3      -0.113863652433
  4       0.054869921084
  5      -0.023163447281
  6      -0.006168647346
  7       0.029547234020
  8      -0.001127010055
  9      -0.000300842848
 10       0.000182620948
 11      -0.000990158355
 12      -0.000186795900
 13       0.000334196593
 14      -0.003716964335
 15      -0.168776491355
 16      -0.032416361058
 17      -0.004781320087
 18      -0.004704417906
 19      -0.017238501371
 20       0.087013495104
 21       0.185756218567
 22       0.105535122813
 23       0.173679909152
 24      -0.111537686773
 25      -0.029709535974
 26       0.093050148770
 27      -0.032710015720
 28      -0.008712161749
 29       0.002169003649
 30      -0.000673691749
 31       0.002256169392
 32      -0.011626122976
 33      -0.002528760272
 34      -0.168773584125
 35      -0.032413882230
 36      -0.004781428152
 37      -0.012655450025
 38       0.012614089783
 39      -0.184107170435
 40      -0.038329251594
 41      -0.004515705356
 42       0.018678877370
 43       0.004976176913
 44       0.171485323846
 45       0.024496144905
 46      -0.001737814229
 47       0.020842933218
 48       0.005551484066
 Sym=     1a
 Ene= -5.13118295525579E-01
 Spin= Alpha
 Occup= 2.000000
  1       0.034954691541
  2      -0.064567527416
  3      -0.039861405425
  4       0.247497415374
  5       0.185491604860
  6       0.049416405071
  7       0.083063527792
  8       0.093206075504
  9       0.024826736825
 10      -0.013658446232
 11       0.003186671055
 12       0.001885606016
 13       0.017079124177
 14       0.011962965059
 15      -0.153437997087
 16      -0.037588332035
 17      -0.000442986263
 18       0.001542227609
 19      -0.010016402653
 20       0.053001086706
 21       0.115377646165
 22       0.135017958027
 23      -0.226768180523
 24       0.335750758160
 25       0.089436640292
 26      -0.100327598860
 27       0.160292458977
 28       0.042702160868
 29       0.000425600228
 30      -0.001443799689
 31      -0.004464352001
 32       0.014834542062
 33      -0.005419823569
 34      -0.153428858470
 35      -0.037585200578
 36      -0.000443392765
 37      -0.003643367619
 38       0.009456333152
 39       0.025447638668
 40      -0.003064930341
 41       0.005699146993
 42       0.002090878349
 43       0.000557248333
 44      -0.283477895356
 45      -0.081609097540
 46       0.007856471742
 47      -0.023811669800
 48      -0.006342023419
 Sym=     1a
 Ene= -4.51957034221250E-01
 Spin= Alpha
 Occup= 2.000000
  1       0.000000706424
  2      -0.000002252321
  3       0.000003267189
  4       0.000016759061
  5       0.105582206636
  6      -0.396436783539
  7       0.000014869425
  8       0.043405814147
  9      -0.162973605460
 10       0.005453248691
 11      -0.004406420499
 12       0.010982742765
 13       0.003150425938
 14       0.001173927572
 15       0.258605795515
 16       0.095676775218
 17       0.007775630405
 18       0.006502899542
 19       0.007295144701
 20      -0.000000596459
 21       0.000000716763
 22      -0.000008919443
 23      -0.000019340860
 24       0.069488364674
 25      -0.260863163252
 26      -0.000006215741
 27       0.045731365795
 28      -0.171702654440
 29       0.002961316116
 30       0.014196533443
 31       0.005963571113
 32       0.001710289055
 33      -0.003780857031
 34      -0.258606345900
 35      -0.095673740133
 36      -0.007776321438
 37      -0.009269459007
 38       0.003093370402
 39      -0.000019259990
 40      -0.000003893135
 41      -0.000000552344
 42       0.002918416738
 43      -0.010952797683
 44      -0.000010728344
 45      -0.000006879193
 46      -0.000000551360
 47       0.003217738613
 48      -0.012086305184
 Sym=     1a
 Ene= -4.34761030344404E-01
 Spin= Alpha
 Occup= 2.000000
  1       0.004892642589
  2      -0.016544792089
  3      -0.004088671622
  4      -0.258349644399
  5       0.301865497486
  6       0.080385733298
  7      -0.096498939781
  8       0.153574229978
  9       0.040897174359
 10       0.003943145229
 11       0.000582019711
 12       0.004324314960
 13      -0.021908760254
 14       0.002186026522
 15      -0.038188425352
 16      -0.007333316515
 17      -0.005842035017
 18       0.006942398140
 19      -0.000489970083
 20       0.046561926068
 21       0.089752350420
 22       0.126056775670
 23       0.360306359820
 24       0.096342125816
 25       0.025647323695
 26       0.208647327344
 27       0.075380565355
 28       0.020070442932
 29       0.004738059230
 30      -0.004661344239
 31       0.000046462340
 32      -0.008366409334
 33      -0.017502127057
 34      -0.038214784519
 35      -0.007344081778
 36      -0.005842722983
 37       0.005778222368
 38       0.003878740880
 39       0.297521110112
 40       0.095208450594
 41       0.001550411587
 42      -0.011984194123
 43      -0.003193957778
 44       0.058721177960
 45       0.046575249287
 46       0.018329802300
 47       0.009306455004
 48       0.002478194432
 Sym=     1a
 Ene= -3.37197051011336E-01
 Spin= Alpha
 Occup= 2.000000
  1       0.015281653310
  2      -0.041625832052
  3       0.021762198080
  4      -0.133598627861
  5      -0.260163257652
  6      -0.069300105103
  7      -0.031517154649
  8      -0.072590467611
  9      -0.019336168333
 10       0.013122510822
 11       0.006375395081
 12      -0.006337897953
 13      -0.000623566994
 14       0.023933128955
 15       0.159228375927
 16       0.094045319266
 17      -0.001474685312
 18      -0.008302820870
 19       0.007454392154
 20       0.078654244058
 21       0.156486098463
 22       0.250086217466
 23       0.235154581576
 24       0.363796885911
 25       0.096913745047
 26       0.180965944388
 27       0.232791185451
 28       0.062018686983
 29       0.008169717312
 30      -0.001574522381
 31      -0.005447830038
 32       0.004851587179
 33      -0.005910049003
 34       0.159226520778
 35       0.094043208953
 36      -0.001473738331
 37      -0.003495304233
 38      -0.010596898466
 39      -0.254460600731
 40      -0.140850362519
 41      -0.005666045842
 42       0.006478869865
 43       0.001726754744
 44      -0.215258223820
 45      -0.072010217458
 46       0.017214754420
 47      -0.008227844564
 48      -0.002190539679
 Sym=     1a
 Ene= -2.75822897447937E-01
 Spin= Alpha
 Occup= 2.000000
  1       0.000000548042
  2      -0.000001717624
  3       0.000008159722
  4       0.000000405153
  5      -0.047988630460
  6       0.180144714180
  7       0.000009275951
  8      -0.007743653046
  9       0.029081058939
 10      -0.003773721492
 11      -0.031524724268
 12      -0.007598421860
 13      -0.002177761688
 14       0.008397890311
 15      -0.213173126990
 16      -0.140482312332
 17       0.000367952095
 18      -0.005038203392
 19      -0.004370885984
 20       0.000002095186
 21       0.000007090856
 22      -0.000003127343
 23       0.000004097299
 24       0.149348102226
 25      -0.560655388053
 26       0.000011374488
 27       0.117091800420
 28      -0.439605288326
 29       0.005433737019
 30       0.007689177636
 31       0.010941883747
 32       0.003137093436
 33      -0.002048611269
 34       0.213178085127
 35       0.140494757902
 36      -0.000367761145
 37       0.006544239321
 38      -0.001286856358
 39      -0.000004267104
 40      -0.000003184561
 41      -0.000000598773
 42      -0.002314955446
 43       0.008690152608
 44      -0.000006615434
 45      -0.000011437750
 46      -0.000000039815
 47       0.007028100636
 48      -0.026392128566
 Sym=     1a
 Ene= 6.15566049470210E-02
 Spin= Alpha
 Occup= 0.000000
  1       0.059430424305
  2      -0.078817548172
  3      -1.315754895508
  4       0.177550523785
  5       0.053552752346
  6       0.014258598591
  7       0.431358536031
  8       0.134795092308
  9       0.035852432059
 10       0.004747022510
 11       0.001945857763
 12       0.000857644181
 13      -0.011211322414
 14       0.007306329639
 15       0.031609795702
 16       0.727343370695
 17       0.006552975335
 18      -0.004568129195
 19      -0.005590975646
 20      -0.079757864053
 21      -0.142157264008
 22      -0.665091844257
 23      -0.023132388288
 24       0.201130483921
 25       0.053575738640
 26      -0.060174017626
 27       0.299781776001
 28       0.079860877695
 29       0.004050236032
 30      -0.001423365517
 31      -0.002582028166
 32       0.001989071075
 33      -0.005344240263
 34       0.031617762502
 35       0.727441255355
 36       0.006554766686
 37      -0.006744484148
 38       0.002576465809
 39       0.010532058463
 40       0.408218874297
 41       0.009478788952
 42       0.005661805352
 43       0.001508675646
 44       0.139294203026
 45       1.019358882838
 46       0.000168723916
 47      -0.004649572064
 48      -0.001238067212
 Sym=     1a
 Ene= 1.08026859523753E-01
 Spin= Alpha
 Occup= 0.000000
  1       0.134643608193
  2      -0.249859293772
  3      -2.245129622231
  4       0.049697313834
  5      -0.054501457149
  6      -0.014545125808
  7       0.203027833196
  8      -0.177794272500
  9      -0.047495188587
 10      -0.001427889086
 11      -0.001631613766
 12      -0.000824935630
 13       0.005350333492
 14      -0.006126592758
 15       0.019689675472
 16       0.966720406605
 17      -0.006024601155
 18       0.001992999790
 19      -0.003488018602
 20       0.059024646487
 21       0.087322562197
 22       0.647079921171
 23      -0.051168504657
 24      -0.144291207620
 25      -0.038422403615
 26      -0.089166655348
 27      -0.199748362133
 28      -0.053186767779
 29       0.000642447545
 30       0.001721025879
 31       0.001287957377
 32      -0.005607265454
 33       0.006459098175
 34       0.019705806119
 35       0.967010267363
 36      -0.006023978729
 37      -0.000004675048
 38       0.004016419305
 39       0.043729961204
 40       1.295012653889
 41      -0.007851640394
 42       0.003377338848
 43       0.000899569595
 44      -0.113544194817
 45      -0.738862487744
 46      -0.011425782380
 47       0.000788138308
 48       0.000211710150
 Sym=     1a
 Ene= 1.47531552024394E-01
 Spin= Alpha
 Occup= 0.000000
  1      -0.000009884232
  2       0.000037971251
  3       0.000067710342
  4      -0.000026381589
  5       0.105422769475
  6      -0.395182298484
  7      -0.000100960902
  8       0.317622718709
  9      -1.190541674851
 10      -0.004985125397
 11      -0.005287790595
 12      -0.010049826295
 13      -0.002874627135
 14       0.001412036988
 15      -0.065175126782
 16      -1.636300001168
 17       0.000619463947
 18       0.007616234285
 19       0.004040386576
 20       0.000005263888
 21       0.000007848845
 22       0.000076984540
 23      -0.000020431884
 24      -0.018497170495
 25       0.069335221299
 26      -0.000041484791
 27      -0.045656011219
 28       0.171144522231
 29      -0.002900025299
 30       0.009378920211
 31      -0.005839425743
 32      -0.001674722589
 33      -0.002502938519
 34       0.065218647308
 35       1.636860008084
 36      -0.000620018909
 37      -0.008611452025
 38      -0.000278816250
 39      -0.000054086278
 40      -0.000785674108
 41      -0.000000663310
 42       0.002757856727
 43      -0.010372215824
 44       0.000012179908
 45      -0.000012152214
 46       0.000004234619
 47      -0.003413752074
 48       0.012810916946
 Sym=     1a
 Ene= 1.48438769071529E-01
 Spin= Alpha
 Occup= 0.000000
  1      -0.016360964401
  2       0.018403974339
  3       0.313317304540
  4       0.041038938280
  5      -0.373103731171
  6      -0.099545123750
  7       0.211657134538
  8      -1.173580389717
  9      -0.313102217508
 10      -0.008606288292
 11      -0.002007698557
 12       0.008388234920
 13      -0.014364238583
 14      -0.007527184299
 15      -0.054671106710
 16      -0.971410652299
 17       0.003224631055
 18      -0.009628224176
 19       0.004272254248
 20      -0.022129869931
 21      -0.034138600026
 22      -0.282368669831
 23       0.071322724696
 24       0.084178727763
 25       0.022449737986
 26       0.132121773167
 27       0.184238083832
 28       0.049146404851
 29      -0.000125263939
 30       0.002661803814
 31      -0.000475628735
 32       0.001865579034
 33       0.009978559010
 34      -0.054626755824
 35      -0.970125971080
 36       0.003224637939
 37      -0.006233961999
 38      -0.008495275077
 39       0.120573688071
 40       1.765994315230
 41       0.001875183059
 42       0.008248700469
 43       0.002191687281
 44      -0.008759716346
 45       0.105499124262
 46      -0.007877629649
 47       0.002104713735
 48       0.000565192865
 Sym=     1a
 Ene= 2.08412064804413E-01
 Spin= Alpha
 Occup= 0.000000
  1       0.061427558113
  2      -0.110269753598
  3      -0.985508201991
  4      -0.288180673922
  5      -0.034846942619
  6      -0.009283831726
  7      -1.426100676921
  8      -0.178730524374
  9      -0.047626614581
 10      -0.025600853244
 11       0.000607714553
 12       0.003558264466
 13       0.031930289865
 14       0.002284805842
 15      -0.110861674729
 16      -0.169296661264
 17      -0.016919339127
 18      -0.002768547525
 19       0.012273965276
 20       0.061159084729
 21       0.093165862158
 22       0.830281863186
 23      -0.348011487722
 24       0.139861107844
 25       0.037246308627
 26      -0.742444161646
 27       0.248081280208
 28       0.066084898227
 29      -0.003371621212
 30       0.000850750989
 31       0.001265493510
 32       0.001427214887
 33       0.003192221492
 34      -0.110862341898
 35      -0.169259609714
 36      -0.016920348114
 37       0.003705981850
 38      -0.012023611324
 39      -0.060928160188
 40       0.294317014152
 41      -0.014036218096
 42      -0.008043724966
 43      -0.002142062384
 44       0.069084083210
 45       0.809646193221
 46      -0.004301432881
 47      -0.008795983256
 48      -0.002343768633
 Sym=     1a
 Ene= 4.70646969119889E-01
 Spin= Alpha
 Occup= 0.000000
  1       0.029686699906
  2      -0.168515165195
  3       0.298359566681
  4      -0.156124041781
  5      -0.199139449136
  6      -0.052996809325
  7       0.146298777109
  8       1.083817706348
  9       0.288481952833
 10       0.065577507894
 11       0.012998409259
 12      -0.048243958403
 13       0.054625108743
 14       0.048811557880
 15       0.433193357534
 16      -0.175609687739
 17      -0.011056346715
 18       0.059382253035
 19      -0.014890642071
 20      -0.026828612608
 21      -0.083627919715
 22      -0.115648265470
 23      -0.146851765264
 24      -0.018694278304
 25      -0.004952589730
 26      -0.029655627120
 27      -0.140908622605
 28      -0.037498418937
 29      -0.001420389688
 30      -0.005572187260
 31       0.008238015528
 32      -0.026280284925
 33      -0.020923213343
 34       0.433405308686
 35      -0.175606299532
 36      -0.011055963267
 37       0.044104879011
 38       0.042447606731
 39      -0.837297570066
 40       0.143538276655
 41       0.000455435982
 42      -0.006992813128
 43      -0.001873708438
 44       0.284453094008
 45      -0.012851277094
 46       0.050042743964
 47      -0.036963828299
 48      -0.009846506212
 Sym=     1a
 Ene= 4.88185666829697E-01
 Spin= Alpha
 Occup= 0.000000
  1      -0.000003881232
  2       0.000071659397
  3      -0.000315882340
  4      -0.000039712318
  5       0.057121722443
  6      -0.214494349353
  7       0.000071114841
  8      -0.345302594799
  9       1.296846939376
 10       0.043052078819
 11       0.036962637358
 12       0.086664152181
 13       0.024859441230
 14      -0.009834945147
 15       0.753805994334
 16      -0.020409815120
 17      -0.008055124364
 18      -0.042564565468
 19       0.010370582995
 20      -0.000001228475
 21      -0.000005201891
 22       0.000013204916
 23      -0.000025382380
 24       0.051439009301
 25      -0.193109382015
 26      -0.000025161957
 27       0.054903856185
 28      -0.206153427767
 29       0.004469437969
 30      -0.010278410248
 31       0.009003753007
 32       0.002577078761
 33       0.002733357858
 34      -0.753611662511
 35       0.020512631577
 36       0.008047494128
 37       0.031779435500
 38       0.030187283362
 39      -0.000096035021
 40       0.000125469902
 41       0.000002775841
 42      -0.021164890335
 43       0.079437268444
 44       0.000061097054
 45      -0.000004558706
 46       0.000009767735
 47       0.000980237296
 48      -0.003701986959
 Sym=     1a
 Ene= 4.98880790911880E-01
 Spin= Alpha
 Occup= 0.000000
  1      -0.177148638973
  2       1.056239015374
  3      -2.082380480788
  4       0.756028067070
  5      -0.152315272373
  6      -0.040551093604
  7      -1.070334883494
  8       0.544940297490
  9       0.145120648612
 10       0.029389061153
 11      -0.001164448940
 12      -0.009332665985
 13      -0.018349605896
 14      -0.004377395775
 15      -0.013088282696
 16       0.408788047846
 17       0.043027099616
 18       0.013057183852
 19       0.005396764935
 20      -0.043789785742
 21      -0.215815320306
 22       0.839388789894
 23       0.259628890067
 24      -0.065426612835
 25      -0.017430468331
 26      -0.077973675210
 27      -0.180673138664
 28      -0.048121403780
 29      -0.025527428427
 30      -0.000900352804
 31      -0.005731147771
 32       0.064206241496
 33      -0.003377423664
 34      -0.013108767528
 35       0.408840777958
 36       0.043024168593
 37       0.014024009311
 38       0.001812322382
 39      -0.260181329897
 40       0.235934468964
 41       0.014443680036
 42       0.005142900217
 43       0.001372842133
 44      -0.379063869894
 45       0.594516045898
 46       0.092201312755
 47       0.030182687346
 48       0.008042346323
 Sym=     1a
 Ene= 5.93652913061512E-01
 Spin= Alpha
 Occup= 0.000000
  1       0.006200674595
  2       0.072146194277
  3      -0.390540496478
  4      -0.400904399251
  5      -0.410065802792
  6      -0.109187869213
  7       0.429956083578
  8       1.066050527987
  9       0.283900850360
 10      -0.037195260468
 11      -0.021647475940
 12       0.008184555641
 13       0.035894904167
 14      -0.081288105966
 15      -0.047588440931
 16       0.504818786986
 17       0.023434194879
 18       0.014802012314
 19       0.045441864841
 20       0.066543915747
 21       0.247620465906
 22      -0.394449650362
 23      -0.157468741321
 24      -0.289986690097
 25      -0.077245995360
 26       0.107726338902
 27      -0.235776176861
 28      -0.062799597557
 29       0.047319701727
 30       0.013617598426
 31      -0.031999142963
 32       0.029646862966
 33       0.051129064973
 34      -0.047640826072
 35       0.504945760374
 36       0.023440453976
 37       0.035456811728
 38      -0.032061580094
 39       0.082275963964
 40      -0.680529800655
 41      -0.072604397676
 42       0.035527069968
 43       0.009465589580
 44      -1.030188473488
 45       0.939729565290
 46      -0.046975408693
 47       0.136141313762
 48       0.036267789910
 Sym=     1a
 Ene= 6.58019704833111E-01
 Spin= Alpha
 Occup= 0.000000
  1      -0.247032501687
  2       1.509476566413
  3      -3.698885760960
  4      -0.512061546951
  5       0.209659949669
  6       0.056373060313
  7       0.896266773479
  8      -0.483366912251
  9      -0.129775218126
 10      -0.020940816915
 11       0.006064113591
 12      -0.005354192042
 13       0.055124269372
 14       0.022562676782
 15      -0.347574729715
 16       1.112867164722
 17       0.001161833603
 18       0.027921581648
 19       0.099695810510
 20      -0.007467180692
 21      -0.027898107640
 22       0.091141302151
 23       0.044154488134
 24       0.004114146190
 25       0.001086599997
 26      -0.036673453501
 27       0.104831583446
 28       0.028027168680
 29      -0.003362674958
 30      -0.002481973948
 31       0.004494431100
 32      -0.009861236555
 33      -0.009264952556
 34      -0.347970671435
 35       1.114479800086
 36       0.001241522953
 37       0.073916636408
 38      -0.072680955945
 39      -0.444351204793
 40       1.668998775304
 41       0.036255579864
 42      -0.141120119128
 43      -0.037567368935
 44       0.184467465439
 45      -0.231165046514
 46      -0.008695848374
 47      -0.006937888467
 48      -0.001851853841
 Sym=     1a
 Ene= 6.70933786700224E-01
 Spin= Alpha
 Occup= 0.000000
  1       0.000123501547
  2      -0.000836637722
  3       0.002204114416
  4       0.000263717791
  5      -0.244817270641
  6       0.917740353442
  7      -0.000460352031
  8       0.471672325710
  9      -1.768229287093
 10       0.041480505472
 11       0.099652668223
 12       0.083576881008
 13       0.023907506098
 14      -0.026571926711
 15       0.414977782346
 16      -1.573370074044
 17      -0.075444315602
 18      -0.047611411273
 19      -0.117499937739
 20      -0.000020021294
 21      -0.000084421774
 22       0.000032276337
 23      -0.000006275041
 24       0.009549905774
 25      -0.035485954901
 26       0.000028558019
 27      -0.050015417621
 28       0.187320825433
 29      -0.001930318810
 30      -0.025505415322
 31      -0.003868404758
 32      -0.001120195214
 33       0.006794164827
 34      -0.414936015354
 35       1.572651990124
 36       0.075455747685
 37       0.099689859545
 38      -0.078228393147
 39       0.000317506476
 40      -0.001366795525
 41      -0.000034464393
 42      -0.010611507527
 43       0.040251755707
 44       0.000121254621
 45      -0.000134444243
 46       0.000011108097
 47       0.001854598625
 48      -0.007147948764
 Sym=     1a
 Ene= 6.85135110064038E-01
 Spin= Alpha
 Occup= 0.000000
  1       0.025978266841
  2       0.036903018358
  3      -0.389257128162
  4       0.029199174449
  5       0.751173958622
  6       0.200421093774
  7      -0.054841828110
  8      -1.336902148863
  9      -0.356768472703
 10       0.079131573983
 11       0.013984290759
 12      -0.053492010359
 13       0.049633771898
 14       0.052364525861
 15       0.458168313854
 16      -0.834909327388
 17      -0.029493789474
 18       0.017254836529
 19      -0.092526743377
 20       0.065780788992
 21       0.281252548528
 22      -0.258896402727
 23      -0.030163306002
 24      -0.243668345858
 25      -0.064916711434
 26      -0.029259747932
 27       0.217313566446
 28       0.057956951841
 29       0.020436010350
 30       0.002041774214
 31      -0.020723570481
 32       0.036878557179
 33       0.007700004840
 34       0.457920461241
 35      -0.833858640613
 36      -0.029434836235
 37      -0.031000559586
 38       0.088790969004
 39      -0.243308448901
 40       1.491888306030
 41       0.058284374123
 42      -0.095727756248
 43      -0.025487407710
 44      -0.511848473464
 45       0.609108335086
 46      -0.028771813976
 47       0.131576456146
 48       0.035046325870
 Sym=     1a
 Ene= 7.23310685108790E-01
 Spin= Alpha
 Occup= 0.000000
  1      -0.072054204109
  2       1.177377122913
  3      -4.279715254603
  4      -0.146016238206
  5      -0.157728752903
  6      -0.041990069473
  7       0.420251437694
  8       0.242739540700
  9       0.064588105945
 10       0.003910971444
 11       0.001271406991
 12       0.008621790505
 13      -0.036875686710
 14       0.004771761743
 15       0.636981666223
 16       0.895266214431
 17       0.019998278546
 18      -0.015149474284
 19      -0.022848562090
 20       0.082223561468
 21       0.309683904503
 22       0.310517189645
 23      -0.118052437601