 Entering Gaussian System, Link 0=g16
 Input=dna_112.gjf
 Output=dna_112.log
 Initial command:
 /usr/g16/l1.exe "/scratch/lvziyi/gaussian/Gau-153304.inp" -scrdir="/scratch/lvziyi/gaussian/"
 Entering Link 1 = /usr/g16/l1.exe PID=    153306.
  
 Copyright (c) 1988,1990,1992,1993,1995,1998,2003,2009,2016,
            Gaussian, Inc.  All Rights Reserved.
  
 This is part of the Gaussian(R) 16 program.  It is based on
 the Gaussian(R) 09 system (copyright 2009, Gaussian, Inc.),
 the Gaussian(R) 03 system (copyright 2003, Gaussian, Inc.),
 the Gaussian(R) 98 system (copyright 1998, Gaussian, Inc.),
 the Gaussian(R) 94 system (copyright 1995, Gaussian, Inc.),
 the Gaussian 92(TM) system (copyright 1992, Gaussian, Inc.),
 the Gaussian 90(TM) system (copyright 1990, Gaussian, Inc.),
 the Gaussian 88(TM) system (copyright 1988, Gaussian, Inc.),
 the Gaussian 86(TM) system (copyright 1986, Carnegie Mellon
 University), and the Gaussian 82(TM) system (copyright 1983,
 Carnegie Mellon University). Gaussian is a federally registered
 trademark of Gaussian, Inc.
  
 This software contains proprietary and confidential information,
 including trade secrets, belonging to Gaussian, Inc.
  
 This software is provided under written license and may be
 used, copied, transmitted, or stored only in accord with that
 written license.
  
 The following legend is applicable only to US Government
 contracts under FAR:
  
                    RESTRICTED RIGHTS LEGEND
  
 Use, reproduction and disclosure by the US Government is
 subject to restrictions as set forth in subparagraphs (a)
 and (c) of the Commercial Computer Software - Restricted
 Rights clause in FAR 52.227-19.
  
 Gaussian, Inc.
 340 Quinnipiac St., Bldg. 40, Wallingford CT 06492
  
  
 ---------------------------------------------------------------
 Warning -- This program may not be used in any manner that
 competes with the business of Gaussian, Inc. or will provide
 assistance to any competitor of Gaussian, Inc.  The licensee
 of this program is prohibited from giving any competitor of
 Gaussian, Inc. access to this program.  By using this program,
 the user acknowledges that Gaussian, Inc. is engaged in the
 business of creating and licensing software in the field of
 computational chemistry and represents and warrants to the
 licensee that it is not a competitor of Gaussian, Inc. and that
 it will not use this program in any manner prohibited above.
 ---------------------------------------------------------------
  

 Cite this work as:
 Gaussian 16, Revision A.03,
 M. J. Frisch, G. W. Trucks, H. B. Schlegel, G. E. Scuseria, 
 M. A. Robb, J. R. Cheeseman, G. Scalmani, V. Barone, 
 G. A. Petersson, H. Nakatsuji, X. Li, M. Caricato, A. V. Marenich, 
 J. Bloino, B. G. Janesko, R. Gomperts, B. Mennucci, H. P. Hratchian, 
 J. V. Ortiz, A. F. Izmaylov, J. L. Sonnenberg, D. Williams-Young, 
 F. Ding, F. Lipparini, F. Egidi, J. Goings, B. Peng, A. Petrone, 
 T. Henderson, D. Ranasinghe, V. G. Zakrzewski, J. Gao, N. Rega, 
 G. Zheng, W. Liang, M. Hada, M. Ehara, K. Toyota, R. Fukuda, 
 J. Hasegawa, M. Ishida, T. Nakajima, Y. Honda, O. Kitao, H. Nakai, 
 T. Vreven, K. Throssell, J. A. Montgomery, Jr., J. E. Peralta, 
 F. Ogliaro, M. J. Bearpark, J. J. Heyd, E. N. Brothers, K. N. Kudin, 
 V. N. Staroverov, T. A. Keith, R. Kobayashi, J. Normand, 
 K. Raghavachari, A. P. Rendell, J. C. Burant, S. S. Iyengar, 
 J. Tomasi, M. Cossi, J. M. Millam, M. Klene, C. Adamo, R. Cammi, 
 J. W. Ochterski, R. L. Martin, K. Morokuma, O. Farkas, 
 J. B. Foresman, and D. J. Fox, Gaussian, Inc., Wallingford CT, 2016.
 
 ******************************************
 Gaussian 16:  ES64L-G16RevA.03 25-Dec-2016
                26-Dec-2023 
 ******************************************
 %chk=5ddna_112.chk
 %mem=20gb
 %nproc=64
 Will use up to   64 processors via shared memory.
 ----------------------------------------------------------------------
 #p m062x/6-31+g(d) charge nosymm POP=NPA iop(9/40=4) iop(6/10=1) densi
 ty 5D 7F
 ----------------------------------------------------------------------
 1/18=10,28=-2,30=1,38=1,125=101,172=1/1;
 2/12=2,15=1,17=6,18=5,40=1/2;
 3/5=1,6=6,7=11,8=11,11=2,25=1,30=1,74=-55/1,2,3;
 4//1;
 5/5=2,38=5/2;
 6/7=2,8=2,9=2,10=1,22=-1,28=1,40=-1/1,7;
 99/5=1,9=1/99;
 Leave Link    1 at Tue Dec 26 19:58:36 2023, MaxMem=  2684354560 cpu:               6.8 elap:               0.1
 (Enter /usr/g16/l101.exe)
 --------------
 Atom number=70
 --------------
 Symbolic Z-matrix:
 Charge =  1 Multiplicity = 1
 c                     20.4098   28.6655   35.6709 
 h                     20.3707   27.5771   35.7137 
 o                     21.72     29.1479   35.6314 
 c                     22.2169   29.1189   36.9573 
 h                     22.4764   28.0878   37.1975 
 n                     23.3695   30.0431   37.0225 
 c                     23.2853   31.2789   36.4946 
 h                     22.4358   31.6158   35.9191 
 c                     24.2908   32.1604   36.6419 
 h                     24.2255   33.0808   36.0807 
 c                     25.4305   31.719    37.391 
 n                     26.4604   32.4915   37.4427 
 h                     27.2912   32.2285   37.9534 
 h                     26.6316   33.261    36.8113 
 n                     25.4934   30.5441   37.9297 
 c                     24.4107   29.7976   37.865 
 o                     24.4498   28.7668   38.5039 
 c                     19.7857   29.3129   36.8719 
 h                     19.3132   30.229    36.5174 
 c                     20.998    29.6181   37.7698 
 h                     21.1203   30.6807   37.9794 
 h                     20.8351   28.9459   38.6123 
 o                     18.7991   28.4471   37.4217 
 p                     17.9795   28.7875   38.7661 
 o                     16.9228   27.737    38.7761 
 o                     17.5282   30.1941   38.7295 
 o                     18.888    28.6339   39.9838 
 c                     19.2487   27.324    40.4644 
 h                     19.8699   26.8417   39.7096 
 h                     18.4143   26.6428   40.6311 
 c                     23.1368   27.5402   31.6122 
 c                     24.3931   28.1887   31.3547 
 c                     24.6657   28.9274   30.2101 
 c                     23.6863   28.9021   29.1799 
 c                     22.5104   28.118    29.299 
 c                     22.156    27.6251   30.4994 
 c                     22.894    26.8999   32.7886 
 n                     21.9097   25.9934   32.9209 
 h                     22.1655   25.1909   33.4819 
 h                     21.4109   25.6454   32.1121 
 n                     23.6729   26.9561   33.8684 
 h                     24.1162   27.864    33.9267 
 h                     23.124    26.7527   34.6939 
 c                     23.8307   29.71     28.0252 
 n                     25.034    30.3512   27.7606 
 c                     24.8363   31.0505   26.6014 
 h                     25.9083   30.2355   28.2528 
 c                     23.5068   30.9548   26.18 
 c                     25.866    31.6179   25.9467 
 c                     22.8471   30.1235   27.0459 
 c                     23.1308   31.3366   24.8983 
 c                     24.1349   32.0274   24.1771 
 c                     25.5542   32.2401   24.6149 
 c                     26.4957   32.8763   23.8817 
 n                     27.6889   33.1711   24.288 
 h                     28.3512   32.9736   23.5488 
 h                     27.8911   32.6805   25.1497 
 n                     26.249    33.4608   22.6839 
 h                     25.2975   33.7563   22.5065 
 h                     26.9694   34.1473   22.4999 
 h                     25.1919   28.1583   32.0868 
 h                     25.5924   29.4689   30.0585 
 h                     21.2988   26.9661   30.5768 
 h                     21.8882   28.1116   28.4114 
 h                     21.9004   29.6182   26.8928 
 h                     22.1677   31.0958   24.463 
 h                     23.9375   32.3512   23.1616 
 h                     26.8898   31.6516   26.3014 
 h                     19.88889   28.80831   34.74723 
 h                     19.85561   27.27089   41.34402 
 
 ITRead=  0  0  0  0  0  0  0  0  0  0  0  0  0  0  0  0  0  0  0  0
 ITRead=  0  0  0  0  0  0  0  0  0  0  0  0  0  0  0  0  0  0  0  0
 ITRead=  0  0  0  0  0  0  0  0  0  0  0  0  0  0  0  0  0  0  0  0
 ITRead=  0  0  0  0  0  0  0  0  0  0
 MicOpt= -1 -1 -1 -1 -1 -1 -1 -1 -1 -1 -1 -1 -1 -1 -1 -1 -1 -1 -1 -1
 MicOpt= -1 -1 -1 -1 -1 -1 -1 -1 -1 -1 -1 -1 -1 -1 -1 -1 -1 -1 -1 -1
 MicOpt= -1 -1 -1 -1 -1 -1 -1 -1 -1 -1 -1 -1 -1 -1 -1 -1 -1 -1 -1 -1
 MicOpt= -1 -1 -1 -1 -1 -1 -1 -1 -1 -1
 NAtoms=     70 NQM=       70 NQMF=       0 NMMI=      0 NMMIF=      0
                NMic=       0 NMicF=      0.
                    Isotopes and Nuclear Properties:
 (Nuclear quadrupole moments (NQMom) in fm**2, nuclear magnetic moments (NMagM)
  in nuclear magnetons)

  Atom         1           2           3           4           5           6           7           8           9          10
 IAtWgt=          12           1          16          12           1          14          12           1          12           1
 AtmWgt=  12.0000000   1.0078250  15.9949146  12.0000000   1.0078250  14.0030740  12.0000000   1.0078250  12.0000000   1.0078250
 NucSpn=           0           1           0           0           1           2           0           1           0           1
 AtZEff=  -0.0000000  -0.0000000  -0.0000000  -0.0000000  -0.0000000  -0.0000000  -0.0000000  -0.0000000  -0.0000000  -0.0000000
 NQMom=    0.0000000   0.0000000   0.0000000   0.0000000   0.0000000   2.0440000   0.0000000   0.0000000   0.0000000   0.0000000
 NMagM=    0.0000000   2.7928460   0.0000000   0.0000000   2.7928460   0.4037610   0.0000000   2.7928460   0.0000000   2.7928460
 AtZNuc=   6.0000000   1.0000000   8.0000000   6.0000000   1.0000000   7.0000000   6.0000000   1.0000000   6.0000000   1.0000000

  Atom        11          12          13          14          15          16          17          18          19          20
 IAtWgt=          12          14           1           1          14          12          16          12           1          12
 AtmWgt=  12.0000000  14.0030740   1.0078250   1.0078250  14.0030740  12.0000000  15.9949146  12.0000000   1.0078250  12.0000000
 NucSpn=           0           2           1           1           2           0           0           0           1           0
 AtZEff=  -0.0000000  -0.0000000  -0.0000000  -0.0000000  -0.0000000  -0.0000000  -0.0000000  -0.0000000  -0.0000000  -0.0000000
 NQMom=    0.0000000   2.0440000   0.0000000   0.0000000   2.0440000   0.0000000   0.0000000   0.0000000   0.0000000   0.0000000
 NMagM=    0.0000000   0.4037610   2.7928460   2.7928460   0.4037610   0.0000000   0.0000000   0.0000000   2.7928460   0.0000000
 AtZNuc=   6.0000000   7.0000000   1.0000000   1.0000000   7.0000000   6.0000000   8.0000000   6.0000000   1.0000000   6.0000000

  Atom        21          22          23          24          25          26          27          28          29          30
 IAtWgt=           1           1          16          31          16          16          16          12           1           1
 AtmWgt=   1.0078250   1.0078250  15.9949146  30.9737634  15.9949146  15.9949146  15.9949146  12.0000000   1.0078250   1.0078250
 NucSpn=           1           1           0           1           0           0           0           0           1           1
 AtZEff=  -0.0000000  -0.0000000  -0.0000000  -0.0000000  -0.0000000  -0.0000000  -0.0000000  -0.0000000  -0.0000000  -0.0000000
 NQMom=    0.0000000   0.0000000   0.0000000   0.0000000   0.0000000   0.0000000   0.0000000   0.0000000   0.0000000   0.0000000
 NMagM=    2.7928460   2.7928460   0.0000000   1.1316000   0.0000000   0.0000000   0.0000000   0.0000000   2.7928460   2.7928460
 AtZNuc=   1.0000000   1.0000000   8.0000000  15.0000000   8.0000000   8.0000000   8.0000000   6.0000000   1.0000000   1.0000000

  Atom        31          32          33          34          35          36          37          38          39          40
 IAtWgt=          12          12          12          12          12          12          12          14           1           1
 AtmWgt=  12.0000000  12.0000000  12.0000000  12.0000000  12.0000000  12.0000000  12.0000000  14.0030740   1.0078250   1.0078250
 NucSpn=           0           0           0           0           0           0           0           2           1           1
 AtZEff=  -0.0000000  -0.0000000  -0.0000000  -0.0000000  -0.0000000  -0.0000000  -0.0000000  -0.0000000  -0.0000000  -0.0000000
 NQMom=    0.0000000   0.0000000   0.0000000   0.0000000   0.0000000   0.0000000   0.0000000   2.0440000   0.0000000   0.0000000
 NMagM=    0.0000000   0.0000000   0.0000000   0.0000000   0.0000000   0.0000000   0.0000000   0.4037610   2.7928460   2.7928460
 AtZNuc=   6.0000000   6.0000000   6.0000000   6.0000000   6.0000000   6.0000000   6.0000000   7.0000000   1.0000000   1.0000000

  Atom        41          42          43          44          45          46          47          48          49          50
 IAtWgt=          14           1           1          12          14          12           1          12          12          12
 AtmWgt=  14.0030740   1.0078250   1.0078250  12.0000000  14.0030740  12.0000000   1.0078250  12.0000000  12.0000000  12.0000000
 NucSpn=           2           1           1           0           2           0           1           0           0           0
 AtZEff=  -0.0000000  -0.0000000  -0.0000000  -0.0000000  -0.0000000  -0.0000000  -0.0000000  -0.0000000  -0.0000000  -0.0000000
 NQMom=    2.0440000   0.0000000   0.0000000   0.0000000   2.0440000   0.0000000   0.0000000   0.0000000   0.0000000   0.0000000
 NMagM=    0.4037610   2.7928460   2.7928460   0.0000000   0.4037610   0.0000000   2.7928460   0.0000000   0.0000000   0.0000000
 AtZNuc=   7.0000000   1.0000000   1.0000000   6.0000000   7.0000000   6.0000000   1.0000000   6.0000000   6.0000000   6.0000000

  Atom        51          52          53          54          55          56          57          58          59          60
 IAtWgt=          12          12          12          12          14           1           1          14           1           1
 AtmWgt=  12.0000000  12.0000000  12.0000000  12.0000000  14.0030740   1.0078250   1.0078250  14.0030740   1.0078250   1.0078250
 NucSpn=           0           0           0           0           2           1           1           2           1           1
 AtZEff=  -0.0000000  -0.0000000  -0.0000000  -0.0000000  -0.0000000  -0.0000000  -0.0000000  -0.0000000  -0.0000000  -0.0000000
 NQMom=    0.0000000   0.0000000   0.0000000   0.0000000   2.0440000   0.0000000   0.0000000   2.0440000   0.0000000   0.0000000
 NMagM=    0.0000000   0.0000000   0.0000000   0.0000000   0.4037610   2.7928460   2.7928460   0.4037610   2.7928460   2.7928460
 AtZNuc=   6.0000000   6.0000000   6.0000000   6.0000000   7.0000000   1.0000000   1.0000000   7.0000000   1.0000000   1.0000000

  Atom        61          62          63          64          65          66          67          68          69          70
 IAtWgt=           1           1           1           1           1           1           1           1           1           1
 AtmWgt=   1.0078250   1.0078250   1.0078250   1.0078250   1.0078250   1.0078250   1.0078250   1.0078250   1.0078250   1.0078250
 NucSpn=           1           1           1           1           1           1           1           1           1           1
 AtZEff=  -0.0000000  -0.0000000  -0.0000000  -0.0000000  -0.0000000  -0.0000000  -0.0000000  -0.0000000  -0.0000000  -0.0000000
 NQMom=    0.0000000   0.0000000   0.0000000   0.0000000   0.0000000   0.0000000   0.0000000   0.0000000   0.0000000   0.0000000
 NMagM=    2.7928460   2.7928460   2.7928460   2.7928460   2.7928460   2.7928460   2.7928460   2.7928460   2.7928460   2.7928460
 AtZNuc=   1.0000000   1.0000000   1.0000000   1.0000000   1.0000000   1.0000000   1.0000000   1.0000000   1.0000000   1.0000000
 Background charge distribution read from input stream:
 Leave Link  101 at Tue Dec 26 19:58:36 2023, MaxMem=  2684354560 cpu:               7.9 elap:               0.1
 (Enter /usr/g16/l202.exe)
 Symmetry turned off by external request.
 Stoichiometry    C25H30N8O6P(1+)
 Framework group  C1[X(C25H30N8O6P)]
 Deg. of freedom   204
 Full point group                 C1      NOp   1
                          Input orientation:                          
 ---------------------------------------------------------------------
 Center     Atomic      Atomic             Coordinates (Angstroms)
 Number     Number       Type             X           Y           Z
 ---------------------------------------------------------------------
      1          6           0       20.409800   28.665500   35.670900
      2          1           0       20.370700   27.577100   35.713700
      3          8           0       21.720000   29.147900   35.631400
      4          6           0       22.216900   29.118900   36.957300
      5          1           0       22.476400   28.087800   37.197500
      6          7           0       23.369500   30.043100   37.022500
      7          6           0       23.285300   31.278900   36.494600
      8          1           0       22.435800   31.615800   35.919100
      9          6           0       24.290800   32.160400   36.641900
     10          1           0       24.225500   33.080800   36.080700
     11          6           0       25.430500   31.719000   37.391000
     12          7           0       26.460400   32.491500   37.442700
     13          1           0       27.291200   32.228500   37.953400
     14          1           0       26.631600   33.261000   36.811300
     15          7           0       25.493400   30.544100   37.929700
     16          6           0       24.410700   29.797600   37.865000
     17          8           0       24.449800   28.766800   38.503900
     18          6           0       19.785700   29.312900   36.871900
     19          1           0       19.313200   30.229000   36.517400
     20          6           0       20.998000   29.618100   37.769800
     21          1           0       21.120300   30.680700   37.979400
     22          1           0       20.835100   28.945900   38.612300
     23          8           0       18.799100   28.447100   37.421700
     24         15           0       17.979500   28.787500   38.766100
     25          8           0       16.922800   27.737000   38.776100
     26          8           0       17.528200   30.194100   38.729500
     27          8           0       18.888000   28.633900   39.983800
     28          6           0       19.248700   27.324000   40.464400
     29          1           0       19.869900   26.841700   39.709600
     30          1           0       18.414300   26.642800   40.631100
     31          6           0       23.136800   27.540200   31.612200
     32          6           0       24.393100   28.188700   31.354700
     33          6           0       24.665700   28.927400   30.210100
     34          6           0       23.686300   28.902100   29.179900
     35          6           0       22.510400   28.118000   29.299000
     36          6           0       22.156000   27.625100   30.499400
     37          6           0       22.894000   26.899900   32.788600
     38          7           0       21.909700   25.993400   32.920900
     39          1           0       22.165500   25.190900   33.481900
     40          1           0       21.410900   25.645400   32.112100
     41          7           0       23.672900   26.956100   33.868400
     42          1           0       24.116200   27.864000   33.926700
     43          1           0       23.124000   26.752700   34.693900
     44          6           0       23.830700   29.710000   28.025200
     45          7           0       25.034000   30.351200   27.760600
     46          6           0       24.836300   31.050500   26.601400
     47          1           0       25.908300   30.235500   28.252800
     48          6           0       23.506800   30.954800   26.180000
     49          6           0       25.866000   31.617900   25.946700
     50          6           0       22.847100   30.123500   27.045900
     51          6           0       23.130800   31.336600   24.898300
     52          6           0       24.134900   32.027400   24.177100
     53          6           0       25.554200   32.240100   24.614900
     54          6           0       26.495700   32.876300   23.881700
     55          7           0       27.688900   33.171100   24.288000
     56          1           0       28.351200   32.973600   23.548800
     57          1           0       27.891100   32.680500   25.149700
     58          7           0       26.249000   33.460800   22.683900
     59          1           0       25.297500   33.756300   22.506500
     60          1           0       26.969400   34.147300   22.499900
     61          1           0       25.191900   28.158300   32.086800
     62          1           0       25.592400   29.468900   30.058500
     63          1           0       21.298800   26.966100   30.576800
     64          1           0       21.888200   28.111600   28.411400
     65          1           0       21.900400   29.618200   26.892800
     66          1           0       22.167700   31.095800   24.463000
     67          1           0       23.937500   32.351200   23.161600
     68          1           0       26.889800   31.651600   26.301400
     69          1           0       19.888893   28.808311   34.747233
     70          1           0       19.855613   27.270887   41.344022
 ---------------------------------------------------------------------
 Rotational constants (GHZ):           0.1288486           0.0241012           0.0222403
 Leave Link  202 at Tue Dec 26 19:58:36 2023, MaxMem=  2684354560 cpu:               0.6 elap:               0.0
 (Enter /usr/g16/l301.exe)
 Standard basis: 6-31+G(d) (5D, 7F)
 Ernie: Thresh=  0.10000D-02 Tol=  0.10000D-05 Strict=F.
   784 basis functions,  1424 primitive gaussians,   824 cartesian basis functions
   149 alpha electrons      149 beta electrons
       nuclear repulsion energy      4396.3474793816 Hartrees.
 IExCor= 4336 DFT=T Ex+Corr=M062X ExCW=0 ScaHFX=  0.540000
 ScaDFX=  1.000000  1.000000  1.000000  1.000000 ScalE2=  1.000000  1.000000
 IRadAn=      5 IRanWt=     -1 IRanGd=            0 ICorTp=0 IEmpDi=  4
 NAtoms=   70 NActive=   70 NUniq=   70 SFac= 1.00D+00 NAtFMM=   60 NAOKFM=T Big=T
 Integral buffers will be    131072 words long.
 Raffenetti 2 integral format.
 Two-electron integral symmetry is turned off.
 Leave Link  301 at Tue Dec 26 19:58:36 2023, MaxMem=  2684354560 cpu:               3.7 elap:               0.1
 (Enter /usr/g16/l302.exe)
 NPDir=0 NMtPBC=     1 NCelOv=     1 NCel=       1 NClECP=     1 NCelD=      1
         NCelK=      1 NCelE2=     1 NClLst=     1 CellRange=     0.0.
 One-electron integrals computed using PRISM.
 NBasis=   784 RedAO= T EigKep=  1.17D-06  NBF=   784
 NBsUse=   781 1.00D-06 EigRej=  6.61D-07 NBFU=   781
 Precomputing XC quadrature grid using
 IXCGrd= 4 IRadAn=           5 IRanWt=          -1 IRanGd=           0 AccXCQ= 0.00D+00.
 Generated NRdTot=       0 NPtTot=           0 NUsed=           0 NTot=          32
 NSgBfM=   740   737   737   740   740 MxSgAt=    70 MxSgA2=    70.
 Leave Link  302 at Tue Dec 26 19:58:38 2023, MaxMem=  2684354560 cpu:             127.9 elap:               2.0
 (Enter /usr/g16/l303.exe)
 DipDrv:  MaxL=1.
 Leave Link  303 at Tue Dec 26 19:58:38 2023, MaxMem=  2684354560 cpu:               7.7 elap:               0.1
 (Enter /usr/g16/l401.exe)
 ExpMin= 3.48D-02 ExpMax= 1.94D+04 ExpMxC= 2.91D+03 IAcc=3 IRadAn=         5 AccDes= 0.00D+00
 Harris functional with IExCor= 1009 and IRadAn=       5 diagonalized for initial guess.
 HarFok:  IExCor= 1009 AccDes= 0.00D+00 IRadAn=         5 IDoV= 1 UseB2=F ITyADJ=14
 ICtDFT=  3500011 ScaDFX=  1.000000  1.000000  1.000000  1.000000
 FoFCou: FMM=F IPFlag=           0 FMFlag=      100000 FMFlg1=        2001
         NFxFlg=           0 DoJE=T BraDBF=F KetDBF=T FulRan=T
         wScrn=  0.000000 ICntrl=       500 IOpCl=  0 I1Cent=   200000004 NGrid=           0
         NMat0=    1 NMatS0=      1 NMatT0=    0 NMatD0=    1 NMtDS0=    0 NMtDT0=    0
 Symmetry not used in FoFCou.
 Harris En= -2199.35585345670    
 JPrj=0 DoOrth=F DoCkMO=F.
 Leave Link  401 at Tue Dec 26 19:58:42 2023, MaxMem=  2684354560 cpu:             211.3 elap:               3.4
 (Enter /usr/g16/l502.exe)
 Two-electron integral symmetry not used.
 Closed shell SCF:
 Using DIIS extrapolation, IDIIS=  1040.
 NGot=  2684354560 LenX=  2682937410 LenY=  2682257610
 Requested convergence on RMS density matrix=1.00D-08 within 128 cycles.
 Requested convergence on MAX density matrix=1.00D-06.
 Requested convergence on             energy=1.00D-06.
 No special actions if energy rises.
 Fock matrices will be formed incrementally for  20 cycles.

 Cycle   1  Pass 1  IDiag  1:
 FoFJK:  IHMeth= 1 ICntrl=       0 DoSepK=F KAlg= 0 I1Cent=           0 FoldK=F
 IRaf= 790000000 NMat=       1 IRICut=       1 DoRegI=T DoRafI=F ISym2E= 0 IDoP0=0 IntGTp=1.
 FoFCou: FMM=T IPFlag=           0 FMFlag=      100000 FMFlg1=        2001
         NFxFlg=           0 DoJE=F BraDBF=F KetDBF=F FulRan=T
         wScrn=  0.000000 ICntrl=         0 IOpCl=  0 I1Cent=           0 NGrid=           0
         NMat0=    1 NMatS0=      1 NMatT0=    0 NMatD0=    1 NMtDS0=    0 NMtDT0=    0
 Symmetry not used in FoFCou.
 FMM levels:  10  Number of levels for PrismC:   9
 E= -2199.35348590942    
 DIIS: error= 2.17D-02 at cycle   1 NSaved=   1.
 NSaved= 1 IEnMin= 1 EnMin= -2199.35348590942     IErMin= 1 ErrMin= 2.17D-02
 ErrMax= 2.17D-02  0.00D+00 EMaxC= 1.00D-01 BMatC= 1.11D+00 BMatP= 1.11D+00
 IDIUse=3 WtCom= 7.83D-01 WtEn= 2.17D-01
 Coeff-Com:  0.100D+01
 Coeff-En:   0.100D+01
 Coeff:      0.100D+01
 Gap=     0.136 Goal=   None    Shift=    0.000
 GapD=    0.136 DampG=1.000 DampE=0.500 DampFc=0.5000 IDamp=-1.
 Damping current iteration by 5.00D-01
 RMSDP=2.76D+00 MaxDP=4.24D+02              OVMax= 9.99D-01

 Cycle   2  Pass 1  IDiag  1:
 RMSU=  1.34D+00    CP:  3.00D+00
 E= -2196.54076455100     Delta-E=        2.812721358419 Rises=F Damp=T
 DIIS: error= 2.42D-02 at cycle   2 NSaved=   2.
 NSaved= 2 IEnMin= 1 EnMin= -2199.35348590942     IErMin= 1 ErrMin= 2.17D-02
 ErrMax= 2.42D-02  0.00D+00 EMaxC= 1.00D-01 BMatC= 7.04D-01 BMatP= 1.11D+00
 IDIUse=3 WtCom= 7.58D-01 WtEn= 2.42D-01
 Coeff-Com:  0.405D+00 0.595D+00
 Coeff-En:   0.834D+00 0.166D+00
 Coeff:      0.509D+00 0.491D+00
 Gap=     0.782 Goal=   None    Shift=    0.000
 RMSDP=1.38D+00 MaxDP=2.12D+02 DE= 2.81D+00 OVMax= 7.81D-01

 Cycle   3  Pass 1  IDiag  1:
 RMSU=  3.08D-02    CP:  1.25D+00 -2.02D-03
 E= -2199.64313372128     Delta-E=       -3.102369170277 Rises=F Damp=F
 DIIS: error= 2.12D-02 at cycle   3 NSaved=   3.
 NSaved= 3 IEnMin= 3 EnMin= -2199.64313372128     IErMin= 3 ErrMin= 2.12D-02
 ErrMax= 2.12D-02  0.00D+00 EMaxC= 1.00D-01 BMatC= 6.19D-01 BMatP= 7.04D-01
 IDIUse=3 WtCom= 7.88D-01 WtEn= 2.12D-01
 EnCoef did     2 forward-backward iterations
 Coeff-Com:  0.144D+00 0.418D+00 0.438D+00
 Coeff-En:   0.168D+00 0.153D+00 0.680D+00
 Coeff:      0.149D+00 0.362D+00 0.489D+00
 Gap=     0.322 Goal=   None    Shift=    0.000
 RMSDP=2.67D-02 MaxDP=6.62D+00 DE=-3.10D+00 OVMax= 1.09D-01

 Cycle   4  Pass 1  IDiag  1:
 RMSU=  8.10D-03    CP:  9.71D-01 -4.32D-04  3.93D-01
 E= -2200.17155404849     Delta-E=       -0.528420327218 Rises=F Damp=F
 DIIS: error= 8.96D-03 at cycle   4 NSaved=   4.
 NSaved= 4 IEnMin= 4 EnMin= -2200.17155404849     IErMin= 4 ErrMin= 8.96D-03
 ErrMax= 8.96D-03  0.00D+00 EMaxC= 1.00D-01 BMatC= 1.10D-01 BMatP= 6.19D-01
 IDIUse=3 WtCom= 9.10D-01 WtEn= 8.96D-02
 Coeff-Com: -0.866D-01 0.268D+00 0.180D-01 0.801D+00
 Coeff-En:   0.000D+00 0.221D-01 0.000D+00 0.978D+00
 Coeff:     -0.788D-01 0.246D+00 0.164D-01 0.817D+00
 Gap=     0.148 Goal=   None    Shift=    0.000
 RMSDP=3.73D-03 MaxDP=6.01D-01 DE=-5.28D-01 OVMax= 4.69D-02

 Cycle   5  Pass 1  IDiag  1:
 RMSU=  3.45D-03    CP:  9.72D-01 -5.77D-06  3.66D-01  1.12D+00
 E= -2200.22066579638     Delta-E=       -0.049111747889 Rises=F Damp=F
 DIIS: error= 7.38D-03 at cycle   5 NSaved=   5.
 NSaved= 5 IEnMin= 5 EnMin= -2200.22066579638     IErMin= 5 ErrMin= 7.38D-03
 ErrMax= 7.38D-03  0.00D+00 EMaxC= 1.00D-01 BMatC= 7.69D-02 BMatP= 1.10D-01
 IDIUse=3 WtCom= 9.26D-01 WtEn= 7.38D-02
 Coeff-Com: -0.131D+00 0.169D+00-0.192D+00 0.504D+00 0.650D+00
 Coeff-En:   0.000D+00 0.000D+00 0.000D+00 0.000D+00 0.100D+01
 Coeff:     -0.122D+00 0.157D+00-0.178D+00 0.466D+00 0.676D+00
 Gap=     0.118 Goal=   None    Shift=    0.000
 RMSDP=3.31D-03 MaxDP=3.56D-01 DE=-4.91D-02 OVMax= 3.24D-02

 Cycle   6  Pass 1  IDiag  1:
 RMSU=  2.40D-03    CP:  9.82D-01  3.41D-04  3.23D-01  1.32D+00  1.17D+00
 E= -2200.27710756996     Delta-E=       -0.056441773576 Rises=F Damp=F
 DIIS: error= 4.37D-03 at cycle   6 NSaved=   6.
 NSaved= 6 IEnMin= 6 EnMin= -2200.27710756996     IErMin= 6 ErrMin= 4.37D-03
 ErrMax= 4.37D-03  0.00D+00 EMaxC= 1.00D-01 BMatC= 2.42D-02 BMatP= 7.69D-02
 IDIUse=3 WtCom= 9.56D-01 WtEn= 4.37D-02
 Coeff-Com: -0.450D-01 0.559D-01-0.127D+00-0.187D+00 0.451D-01 0.126D+01
 Coeff-En:   0.000D+00 0.000D+00 0.000D+00 0.000D+00 0.000D+00 0.100D+01
 Coeff:     -0.430D-01 0.534D-01-0.122D+00-0.179D+00 0.432D-01 0.125D+01
 Gap=     0.084 Goal=   None    Shift=    0.000
 RMSDP=3.77D-03 MaxDP=4.33D-01 DE=-5.64D-02 OVMax= 2.97D-02

 Cycle   7  Pass 1  IDiag  1:
 RMSU=  1.83D-03    CP:  1.00D+00  5.49D-04  2.86D-01  1.51D+00  1.55D+00
                    CP:  1.82D+00
 E= -2200.30361136471     Delta-E=       -0.026503794749 Rises=F Damp=F
 DIIS: error= 1.50D-03 at cycle   7 NSaved=   7.
 NSaved= 7 IEnMin= 7 EnMin= -2200.30361136471     IErMin= 7 ErrMin= 1.50D-03
 ErrMax= 1.50D-03  0.00D+00 EMaxC= 1.00D-01 BMatC= 3.17D-03 BMatP= 2.42D-02
 IDIUse=3 WtCom= 9.85D-01 WtEn= 1.50D-02
 Coeff-Com:  0.117D-02 0.964D-02-0.285D-01-0.200D+00-0.183D+00 0.624D+00
 Coeff-Com:  0.777D+00
 Coeff-En:   0.000D+00 0.000D+00 0.000D+00 0.000D+00 0.000D+00 0.000D+00
 Coeff-En:   0.100D+01
 Coeff:      0.115D-02 0.950D-02-0.281D-01-0.197D+00-0.180D+00 0.615D+00
 Coeff:      0.781D+00
 Gap=    -0.021 Goal=   None    Shift=    0.000
 RMSDP=5.12D-02 MaxDP=6.22D+00 DE=-2.65D-02 OVMax= 1.00D+00

 Cycle   8  Pass 1  IDiag  1:
 RMSU=  4.41D-02    CP:  1.30D+00  1.28D-04 -6.59D-02  2.38D+00  3.00D+00
                    CP:  3.00D+00  3.00D+00
 E= -2199.64871668282     Delta-E=        0.654894681891 Rises=F Damp=F
 DIIS: error= 1.29D-02 at cycle   8 NSaved=   8.
 NSaved= 8 IEnMin= 7 EnMin= -2200.30361136471     IErMin= 7 ErrMin= 1.50D-03
 ErrMax= 1.29D-02  0.00D+00 EMaxC= 1.00D-01 BMatC= 2.83D-01 BMatP= 3.17D-03
 IDIUse=2 WtCom= 0.00D+00 WtEn= 1.00D+00
 Coeff-En:   0.000D+00 0.000D+00 0.000D+00 0.000D+00 0.000D+00 0.000D+00
 Coeff-En:   0.915D+00 0.848D-01
 Coeff:      0.000D+00 0.000D+00 0.000D+00 0.000D+00 0.000D+00 0.000D+00
 Coeff:      0.915D+00 0.848D-01
 Gap=     0.031 Goal=   None    Shift=    0.000
 RMSDP=5.04D-02 MaxDP=6.06D+00 DE= 6.55D-01 OVMax= 9.99D-01

 Cycle   9  Pass 1  IDiag  1:
 RMSU=  9.85D-04    CP:  1.02D+00  5.29D-04  2.90D-01  1.56D+00  1.55D+00
                    CP:  2.42D+00  6.88D-01  2.12D-03
 E= -2200.30381718046     Delta-E=       -0.655100497643 Rises=F Damp=F
 DIIS: error= 1.36D-03 at cycle   9 NSaved=   9.
 NSaved= 9 IEnMin= 9 EnMin= -2200.30381718046     IErMin= 9 ErrMin= 1.36D-03
 ErrMax= 1.36D-03  0.00D+00 EMaxC= 1.00D-01 BMatC= 3.65D-03 BMatP= 3.17D-03
 IDIUse=3 WtCom= 9.85D-01 WtEn= 1.50D-02
 EnCoef did    34 forward-backward iterations
 Coeff-Com:  0.671D-02-0.428D-02-0.149D-02-0.919D-01-0.100D+00 0.740D-01
 Coeff-Com:  0.680D+00 0.312D-01 0.406D+00
 Coeff-En:   0.000D+00 0.000D+00 0.000D+00 0.000D+00 0.000D+00 0.000D+00
 Coeff-En:   0.504D+00 0.831D-01 0.413D+00
 Coeff:      0.660D-02-0.422D-02-0.147D-02-0.905D-01-0.987D-01 0.729D-01
 Coeff:      0.677D+00 0.319D-01 0.406D+00
 Gap=    -0.022 Goal=   None    Shift=    0.000
 RMSDP=5.04D-02 MaxDP=6.02D+00 DE=-6.55D-01 OVMax= 8.36D-01

 Cycle  10  Pass 1  IDiag  1:
 RMSU=  4.32D-04    CP:  1.30D+00  5.82D-05 -6.38D-02  2.38D+00  2.96D+00
                    CP:  3.00D+00  3.00D+00  1.00D+00 -7.33D-02
 E= -2199.65325982852     Delta-E=        0.650557351938 Rises=F Damp=F
 DIIS: error= 1.31D-02 at cycle  10 NSaved=  10.
 NSaved=10 IEnMin= 9 EnMin= -2200.30381718046     IErMin= 9 ErrMin= 1.36D-03
 ErrMax= 1.31D-02  0.00D+00 EMaxC= 1.00D-01 BMatC= 2.80D-01 BMatP= 3.17D-03
 IDIUse=2 WtCom= 0.00D+00 WtEn= 1.00D+00
 EnCoef did   100 forward-backward iterations
 Coeff-En:   0.000D+00 0.000D+00 0.000D+00 0.000D+00 0.000D+00 0.000D+00
 Coeff-En:   0.498D+00 0.711D-01 0.419D+00 0.120D-01
 Coeff:      0.000D+00 0.000D+00 0.000D+00 0.000D+00 0.000D+00 0.000D+00
 Coeff:      0.498D+00 0.711D-01 0.419D+00 0.120D-01
 Gap=     0.021 Goal=   None    Shift=    0.000
 RMSDP=5.04D-02 MaxDP=6.05D+00 DE= 6.51D-01 OVMax= 1.00D+00

 Cycle  11  Pass 1  IDiag  1:
 RMSU=  2.78D-04    CP:  1.02D+00  5.02D-04  2.88D-01  1.56D+00  1.55D+00
                    CP:  2.28D+00  9.85D-01  4.84D-03  6.45D-01  3.79D-01
 E= -2200.30505774417     Delta-E=       -0.651797915643 Rises=F Damp=F
 DIIS: error= 1.20D-03 at cycle  11 NSaved=  11.
 NSaved=11 IEnMin=11 EnMin= -2200.30505774417     IErMin=11 ErrMin= 1.20D-03
 ErrMax= 1.20D-03  0.00D+00 EMaxC= 1.00D-01 BMatC= 2.19D-03 BMatP= 3.17D-03
 IDIUse=3 WtCom= 9.88D-01 WtEn= 1.20D-02
 Coeff-Com:  0.528D-02-0.389D-02-0.343D-02-0.754D-01-0.926D-01 0.692D-01
 Coeff-Com:  0.436D+00 0.585D-01 0.245D+00-0.241D-01 0.385D+00
 Coeff-En:   0.000D+00 0.000D+00 0.000D+00 0.000D+00 0.000D+00 0.000D+00
 Coeff-En:   0.000D+00 0.000D+00 0.000D+00 0.804D-01 0.920D+00
 Coeff:      0.521D-02-0.385D-02-0.339D-02-0.745D-01-0.915D-01 0.684D-01
 Coeff:      0.431D+00 0.578D-01 0.242D+00-0.228D-01 0.392D+00
 Gap=    -0.021 Goal=   None    Shift=    0.000
 RMSDP=5.01D-02 MaxDP=6.04D+00 DE=-6.52D-01 OVMax= 9.99D-01

 Cycle  12  Pass 1  IDiag  1:
 RMSU=  3.09D-04    CP:  1.30D+00  5.38D-05 -6.29D-02  2.36D+00  2.94D+00
                    CP:  3.00D+00  3.00D+00  9.96D-01 -2.50D-02  8.29D-01
                    CP: -1.51D-01
 E= -2199.65640960106     Delta-E=        0.648648143107 Rises=F Damp=F
 DIIS: error= 1.30D-02 at cycle  12 NSaved=  12.
 NSaved=12 IEnMin=11 EnMin= -2200.30505774417     IErMin=11 ErrMin= 1.20D-03
 ErrMax= 1.30D-02  0.00D+00 EMaxC= 1.00D-01 BMatC= 2.78D-01 BMatP= 2.19D-03
 IDIUse=2 WtCom= 0.00D+00 WtEn= 1.00D+00
 Coeff-En:   0.000D+00 0.000D+00 0.000D+00 0.000D+00 0.000D+00 0.000D+00
 Coeff-En:   0.000D+00 0.000D+00 0.000D+00 0.000D+00 0.919D+00 0.806D-01
 Coeff:      0.000D+00 0.000D+00 0.000D+00 0.000D+00 0.000D+00 0.000D+00
 Coeff:      0.000D+00 0.000D+00 0.000D+00 0.000D+00 0.919D+00 0.806D-01
 Gap=    -0.001 Goal=   None    Shift=    0.000
 RMSDP=4.85D-02 MaxDP=5.86D+00 DE= 6.49D-01 OVMax= 9.87D-01

 Cycle  13  Pass 1  IDiag  1:
 RMSU=  2.13D-03    CP:  1.03D+00  4.59D-04  2.74D-01  1.57D+00  1.60D+00
                    CP:  2.47D+00  1.13D+00  3.22D-02  5.85D-01  5.64D-01
                    CP:  2.77D+00  2.11D+00
 E= -2200.30864377460     Delta-E=       -0.652234173538 Rises=F Damp=F
 DIIS: error= 9.57D-04 at cycle  13 NSaved=  13.
 NSaved=13 IEnMin=13 EnMin= -2200.30864377460     IErMin=13 ErrMin= 9.57D-04
 ErrMax= 9.57D-04  0.00D+00 EMaxC= 1.00D-01 BMatC= 1.24D-03 BMatP= 2.19D-03
 IDIUse=3 WtCom= 9.90D-01 WtEn= 9.57D-03
 Coeff-Com:  0.330D-02-0.309D-02-0.418D-02-0.583D-01-0.809D-01 0.734D-01
 Coeff-Com:  0.123D+00 0.702D-01-0.587D-01-0.104D+01 0.562D+00 0.100D+01
 Coeff-Com:  0.408D+00
 Coeff-En:   0.000D+00 0.000D+00 0.000D+00 0.000D+00 0.000D+00 0.000D+00
 Coeff-En:   0.000D+00 0.000D+00 0.000D+00 0.000D+00 0.000D+00 0.570D-01
 Coeff-En:   0.943D+00
 Coeff:      0.327D-02-0.306D-02-0.414D-02-0.577D-01-0.802D-01 0.727D-01
 Coeff:      0.122D+00 0.696D-01-0.581D-01-0.103D+01 0.557D+00 0.995D+00
 Coeff:      0.413D+00
 Gap=    -0.014 Goal=   None    Shift=    0.000
 RMSDP=4.88D-02 MaxDP=5.81D+00 DE=-6.52D-01 OVMax= 9.67D-01

 Cycle  14  Pass 1  IDiag  1:
 RMSU=  3.85D-04    CP:  1.30D+00  2.70D-05 -5.99D-02  2.36D+00  2.90D+00
                    CP:  3.00D+00  3.00D+00  1.00D+00 -1.46D-01  1.57D+00
                    CP:  1.71D+00  1.26D+00  6.70D-01
 E= -2199.68084043603     Delta-E=        0.627803338565 Rises=F Damp=F
 DIIS: error= 1.27D-02 at cycle  14 NSaved=  14.
 NSaved=14 IEnMin=13 EnMin= -2200.30864377460     IErMin=13 ErrMin= 9.57D-04
 ErrMax= 1.27D-02  0.00D+00 EMaxC= 1.00D-01 BMatC= 2.69D-01 BMatP= 1.24D-03
 IDIUse=2 WtCom= 0.00D+00 WtEn= 1.00D+00
 Coeff-En:   0.000D+00 0.000D+00 0.000D+00 0.000D+00 0.000D+00 0.000D+00
 Coeff-En:   0.000D+00 0.000D+00 0.000D+00 0.000D+00 0.000D+00 0.000D+00
 Coeff-En:   0.941D+00 0.591D-01
 Coeff:      0.000D+00 0.000D+00 0.000D+00 0.000D+00 0.000D+00 0.000D+00
 Coeff:      0.000D+00 0.000D+00 0.000D+00 0.000D+00 0.000D+00 0.000D+00
 Coeff:      0.941D+00 0.591D-01
 Gap=     0.001 Goal=   None    Shift=    0.000
 RMSDP=2.80D-02 MaxDP=3.34D+00 DE= 6.28D-01 OVMax= 6.73D-01

 Cycle  15  Pass 1  IDiag  1:
 RMSU=  2.87D-03    CP:  1.15D+00  2.35D-04  1.29D-01  1.84D+00  2.21D+00
                    CP:  3.00D+00  3.00D+00  4.50D-01 -9.95D-02  1.43D+00
                    CP:  3.00D+00  3.00D+00  3.00D+00 -1.97D-01
 E= -2200.22671331208     Delta-E=       -0.545872876052 Rises=F Damp=F
 DIIS: error= 1.16D-02 at cycle  15 NSaved=  15.
 NSaved=15 IEnMin=13 EnMin= -2200.30864377460     IErMin=13 ErrMin= 9.57D-04
 ErrMax= 1.16D-02  0.00D+00 EMaxC= 1.00D-01 BMatC= 5.69D-02 BMatP= 1.24D-03
 IDIUse=2 WtCom= 0.00D+00 WtEn= 1.00D+00
 Coeff-En:   0.000D+00 0.000D+00 0.000D+00 0.000D+00 0.000D+00 0.000D+00
 Coeff-En:   0.000D+00 0.000D+00 0.000D+00 0.000D+00 0.000D+00 0.000D+00
 Coeff-En:   0.834D+00 0.000D+00 0.166D+00
 Coeff:      0.000D+00 0.000D+00 0.000D+00 0.000D+00 0.000D+00 0.000D+00
 Coeff:      0.000D+00 0.000D+00 0.000D+00 0.000D+00 0.000D+00 0.000D+00
 Coeff:      0.834D+00 0.000D+00 0.166D+00
 Gap=     0.011 Goal=   None    Shift=    0.000
 RMSDP=1.39D-02 MaxDP=1.65D+00 DE=-5.46D-01 OVMax= 2.98D-01

 Cycle  16  Pass 1  IDiag  1:
 RMSU=  7.10D-04    CP:  1.07D+00  3.54D-04  2.27D-01  1.64D+00  1.78D+00
                    CP:  3.00D+00  1.99D+00  1.76D-01  2.87D-01  1.56D+00
                    CP:  3.00D+00  3.00D+00  2.43D+00 -6.13D-01  5.92D-01
 E= -2200.31227822141     Delta-E=       -0.085564909326 Rises=F Damp=F
 DIIS: error= 1.40D-03 at cycle  16 NSaved=  16.
 NSaved=16 IEnMin=16 EnMin= -2200.31227822141     IErMin=13 ErrMin= 9.57D-04
 ErrMax= 1.40D-03  0.00D+00 EMaxC= 1.00D-01 BMatC= 1.69D-03 BMatP= 1.24D-03
 IDIUse=3 WtCom= 9.90D-01 WtEn= 9.57D-03
 Coeff-Com: -0.110D-02 0.956D-03-0.140D-02-0.206D-02-0.460D-02 0.131D-01
 Coeff-Com:  0.165D-01-0.212D-01-0.139D-01 0.217D+00-0.294D-01-0.139D+00
 Coeff-Com:  0.567D+00-0.720D-01 0.316D-01 0.439D+00
 Coeff-En:   0.000D+00 0.000D+00 0.000D+00 0.000D+00 0.000D+00 0.000D+00
 Coeff-En:   0.000D+00 0.000D+00 0.000D+00 0.000D+00 0.000D+00 0.000D+00
 Coeff-En:   0.338D+00 0.000D+00 0.000D+00 0.662D+00
 Coeff:     -0.109D-02 0.947D-03-0.139D-02-0.204D-02-0.456D-02 0.129D-01
 Coeff:      0.163D-01-0.210D-01-0.138D-01 0.215D+00-0.291D-01-0.138D+00
 Coeff:      0.565D+00-0.713D-01 0.313D-01 0.441D+00
 Gap=     0.012 Goal=   None    Shift=    0.000
 RMSDP=9.24D-03 MaxDP=1.13D+00 DE=-8.56D-02 OVMax= 2.10D-01

 Cycle  17  Pass 1  IDiag  1:
 RMSU=  5.08D-04    CP:  1.12D+00  2.78D-04  1.60D-01  1.76D+00  2.04D+00
                    CP:  3.00D+00  2.90D+00  3.56D-01  1.32D-01  1.04D+00
                    CP:  3.00D+00  3.00D+00  3.00D+00 -5.42D-01  1.02D+00
                    CP:  2.85D-01
 E= -2200.26878194517     Delta-E=        0.043496276238 Rises=F Damp=F
 DIIS: error= 8.14D-03 at cycle  17 NSaved=  17.
 NSaved=17 IEnMin=16 EnMin= -2200.31227822141     IErMin=13 ErrMin= 9.57D-04
 ErrMax= 8.14D-03  0.00D+00 EMaxC= 1.00D-01 BMatC= 2.95D-02 BMatP= 1.24D-03
 IDIUse=3 WtCom= 9.90D-01 WtEn= 9.57D-03
 Rare condition: small coef for last iteration:  0.000D+00
 Coeff-Com: -0.972D-03 0.827D-03-0.897D-03 0.161D-02-0.180D-02-0.665D-03
 Coeff-Com:  0.730D-02-0.436D-01-0.223D-01 0.117D+00 0.175D+00-0.613D-01
 Coeff-Com:  0.305D+00-0.103D-01-0.273D+00 0.449D+00 0.359D+00
 Coeff-En:   0.000D+00 0.000D+00 0.000D+00 0.000D+00 0.000D+00 0.000D+00
 Coeff-En:   0.000D+00 0.000D+00 0.000D+00 0.000D+00 0.000D+00 0.000D+00
 Coeff-En:   0.776D+00 0.000D+00 0.000D+00 0.000D+00 0.224D+00
 Coeff:     -0.972D-03 0.827D-03-0.897D-03 0.161D-02-0.180D-02-0.665D-03
 Coeff:      0.730D-02-0.436D-01-0.223D-01 0.117D+00 0.175D+00-0.613D-01
 Coeff:      0.305D+00-0.103D-01-0.273D+00 0.449D+00 0.359D+00
 Gap=     0.013 Goal=   None    Shift=    0.000
 RMSDP=2.30D-03 MaxDP=2.75D-01 DE= 4.35D-02 OVMax= 4.86D-02

 Cycle  18  Pass 1  IDiag  1:
 RMSU=  1.05D-04    CP:  1.11D+00  2.98D-04  1.77D-01  1.73D+00  1.97D+00
                    CP:  3.00D+00  2.67D+00  3.11D-01  2.00D-01  1.14D+00
                    CP:  3.00D+00  3.00D+00  2.95D+00 -4.22D-01  9.32D-01
                    CP:  5.84D-01  9.68D-01
 E= -2200.28500951931     Delta-E=       -0.016227574136 Rises=F Damp=F
 DIIS: error= 6.33D-03 at cycle  18 NSaved=  18.
 NSaved=18 IEnMin=16 EnMin= -2200.31227822141     IErMin=13 ErrMin= 9.57D-04
 ErrMax= 6.33D-03  0.00D+00 EMaxC= 1.00D-01 BMatC= 1.91D-02 BMatP= 1.24D-03
 IDIUse=3 WtCom= 9.90D-01 WtEn= 9.57D-03
 EnCoef did   100 forward-backward iterations
 Coeff-Com: -0.789D-03 0.539D-03-0.333D-03 0.408D-02 0.115D-02-0.276D-02
 Coeff-Com: -0.364D-01-0.342D-01-0.536D-01-0.126D+00 0.275D+00 0.106D+00
 Coeff-Com:  0.231D+00 0.750D-01-0.269D+00 0.291D+00-0.527D+00 0.107D+01
 Coeff-En:   0.000D+00 0.000D+00 0.000D+00 0.000D+00 0.000D+00 0.000D+00
 Coeff-En:   0.000D+00 0.000D+00 0.000D+00 0.000D+00 0.000D+00 0.000D+00
 Coeff-En:   0.341D+00 0.000D+00 0.000D+00 0.657D+00 0.000D+00 0.200D-02
 Coeff:     -0.781D-03 0.534D-03-0.330D-03 0.404D-02 0.114D-02-0.273D-02
 Coeff:     -0.360D-01-0.339D-01-0.531D-01-0.125D+00 0.273D+00 0.105D+00
 Coeff:      0.233D+00 0.743D-01-0.267D+00 0.295D+00-0.522D+00 0.106D+01
 Gap=     0.014 Goal=   None    Shift=    0.000
 RMSDP=2.14D-03 MaxDP=2.52D-01 DE=-1.62D-02 OVMax= 4.64D-02

 Cycle  19  Pass 1  IDiag  1:
 RMSU=  8.61D-05    CP:  1.10D+00  3.11D-04  1.92D-01  1.70D+00  1.89D+00
                    CP:  3.00D+00  2.45D+00  2.70D-01  2.89D-01  1.24D+00
                    CP:  3.00D+00  3.00D+00  2.79D+00 -3.33D-01  8.61D-01
                    CP:  7.31D-01  7.42D-01  1.40D+00
 E= -2200.29700772113     Delta-E=       -0.011998201821 Rises=F Damp=F
 DIIS: error= 4.70D-03 at cycle  19 NSaved=  19.
 NSaved=19 IEnMin=16 EnMin= -2200.31227822141     IErMin=13 ErrMin= 9.57D-04
 ErrMax= 4.70D-03  0.00D+00 EMaxC= 1.00D-01 BMatC= 1.13D-02 BMatP= 1.24D-03
 IDIUse=3 WtCom= 9.90D-01 WtEn= 9.57D-03
 EnCoef did   100 forward-backward iterations
 Rare condition: small coef for last iteration:  0.192D-15
 Coeff-Com: -0.377D-03 0.262D-03 0.253D-03 0.404D-02 0.477D-03 0.549D-03
 Coeff-Com: -0.409D-01 0.352D-02-0.419D-01-0.295D+00 0.256D+00 0.198D+00
 Coeff-Com:  0.190D+00 0.121D+00-0.724D-01 0.924D-01-0.108D+01 0.645D+00
 Coeff-Com:  0.101D+01
 Coeff-En:   0.000D+00 0.000D+00 0.000D+00 0.000D+00 0.000D+00 0.000D+00
 Coeff-En:   0.000D+00 0.000D+00 0.000D+00 0.000D+00 0.000D+00 0.000D+00
 Coeff-En:   0.664D+00 0.000D+00 0.000D+00 0.000D+00 0.000D+00 0.000D+00
 Coeff-En:   0.336D+00
 Coeff:     -0.377D-03 0.262D-03 0.253D-03 0.404D-02 0.477D-03 0.549D-03
 Coeff:     -0.409D-01 0.352D-02-0.419D-01-0.295D+00 0.256D+00 0.198D+00
 Coeff:      0.190D+00 0.121D+00-0.724D-01 0.924D-01-0.108D+01 0.645D+00
 Coeff:      0.101D+01
 Gap=     0.016 Goal=   None    Shift=    0.000
 RMSDP=1.44D-03 MaxDP=1.65D-01 DE=-1.20D-02 OVMax= 3.16D-02

 Cycle  20  Pass 1  IDiag  1:
 RMSU=  3.56D-05    CP:  1.09D+00  3.18D-04  2.03D-01  1.68D+00  1.84D+00
                    CP:  3.00D+00  2.30D+00  2.42D-01  3.60D-01  1.31D+00
                    CP:  3.00D+00  3.00D+00  2.65D+00 -2.65D-01  8.18D-01
                    CP:  8.48D-01  5.91D-01  1.72D+00  1.83D+00
 E= -2200.30332281148     Delta-E=       -0.006315090353 Rises=F Damp=F
 DIIS: error= 3.65D-03 at cycle  20 NSaved=  20.
 NSaved=20 IEnMin=16 EnMin= -2200.31227822141     IErMin=13 ErrMin= 9.57D-04
 ErrMax= 3.65D-03  0.00D+00 EMaxC= 1.00D-01 BMatC= 7.27D-03 BMatP= 1.24D-03
 IDIUse=3 WtCom= 9.90D-01 WtEn= 9.57D-03
 EnCoef did   100 forward-backward iterations
 Coeff-Com: -0.361D-03 0.252D-03 0.243D-03 0.366D-02 0.328D-04 0.844D-03
 Coeff-Com: -0.357D-01 0.439D-02-0.373D-01-0.274D+00 0.234D+00 0.181D+00
 Coeff-Com:  0.190D+00 0.114D+00-0.647D-01 0.104D+00-0.875D+00 0.387D+00
 Coeff-Com:  0.782D+00 0.284D+00
 Coeff-En:   0.000D+00 0.000D+00 0.000D+00 0.000D+00 0.000D+00 0.000D+00
 Coeff-En:   0.000D+00 0.000D+00 0.000D+00 0.000D+00 0.000D+00 0.000D+00
 Coeff-En:   0.342D+00 0.000D+00 0.000D+00 0.652D+00 0.000D+00 0.000D+00
 Coeff-En:   0.000D+00 0.615D-02
 Coeff:     -0.358D-03 0.250D-03 0.241D-03 0.362D-02 0.325D-04 0.836D-03
 Coeff:     -0.354D-01 0.434D-02-0.369D-01-0.271D+00 0.232D+00 0.179D+00
 Coeff:      0.192D+00 0.113D+00-0.641D-01 0.109D+00-0.866D+00 0.383D+00
 Coeff:      0.775D+00 0.281D+00
 Gap=     0.016 Goal=   None    Shift=    0.000
 RMSDP=4.07D-04 MaxDP=4.72D-02 DE=-6.32D-03 OVMax= 9.15D-03

 Cycle  21  Pass 1  IDiag  1:
 Restarting incremental Fock formation.
 E= -2200.30483148583     Delta-E=       -0.001508674344 Rises=F Damp=F
 DIIS: error= 3.36D-03 at cycle  21 NSaved=  20.
 NSaved=20 IEnMin=15 EnMin= -2200.31227822141     IErMin=12 ErrMin= 9.57D-04
 ErrMax= 3.36D-03  0.00D+00 EMaxC= 1.00D-01 BMatC= 6.31D-03 BMatP= 1.24D-03
 IDIUse=3 WtCom= 9.90D-01 WtEn= 9.57D-03
 EnCoef did   100 forward-backward iterations
 Rare condition: small coef for last iteration: -0.229D-15
 Coeff-Com: -0.248D-03 0.350D-03 0.310D-02-0.430D-03 0.335D-03-0.344D-01
 Coeff-Com:  0.442D-02-0.369D-01-0.272D+00 0.231D+00 0.178D+00 0.186D+00
 Coeff-Com:  0.115D+00-0.646D-01 0.994D-01-0.828D+00 0.361D+00 0.718D+00
 Coeff-Com: -0.694D-01 0.410D+00
 Coeff-En:   0.000D+00 0.000D+00 0.000D+00 0.000D+00 0.000D+00 0.000D+00
 Coeff-En:   0.000D+00 0.000D+00 0.000D+00 0.000D+00 0.000D+00 0.579D+00
 Coeff-En:   0.000D+00 0.000D+00 0.000D+00 0.000D+00 0.000D+00 0.000D+00
 Coeff-En:   0.000D+00 0.421D+00
 Coeff:     -0.248D-03 0.350D-03 0.310D-02-0.430D-03 0.335D-03-0.344D-01
 Coeff:      0.442D-02-0.369D-01-0.272D+00 0.231D+00 0.178D+00 0.186D+00
 Coeff:      0.115D+00-0.646D-01 0.994D-01-0.828D+00 0.361D+00 0.718D+00
 Coeff:     -0.694D-01 0.410D+00
 Gap=     0.016 Goal=   None    Shift=    0.000
 RMSDP=2.75D-04 MaxDP=3.37D-02 DE=-1.51D-03 OVMax= 6.34D-03

 Cycle  22  Pass 1  IDiag  1:
 RMSU=  2.35D-04    CP:  1.00D+00
 E= -2200.30385269572     Delta-E=        0.000978790104 Rises=F Damp=F
 DIIS: error= 3.56D-03 at cycle  22 NSaved=  20.
 NSaved=20 IEnMin=14 EnMin= -2200.31227822141     IErMin=11 ErrMin= 9.57D-04
 ErrMax= 3.56D-03  0.00D+00 EMaxC= 1.00D-01 BMatC= 6.92D-03 BMatP= 1.24D-03
 IDIUse=3 WtCom= 9.90D-01 WtEn= 9.57D-03
 Large coefficients: NSaved= 20 BigCof=   16.18 CofMax=   10.00 Det=-3.13D-09
 Inversion failed.  Reducing to 19 matrices.
 Large coefficients: NSaved= 19 BigCof=   16.17 CofMax=   10.00 Det=-3.13D-09
 Inversion failed.  Reducing to 18 matrices.
 Large coefficients: NSaved= 18 BigCof=   16.26 CofMax=   10.00 Det=-3.13D-09
 Inversion failed.  Reducing to 17 matrices.
 Large coefficients: NSaved= 17 BigCof=   17.22 CofMax=   10.00 Det=-3.25D-09
 Inversion failed.  Reducing to 16 matrices.
 Large coefficients: NSaved= 16 BigCof=   14.27 CofMax=   10.00 Det=-3.51D-09
 Inversion failed.  Reducing to 15 matrices.
 Large coefficients: NSaved= 15 BigCof=   11.75 CofMax=   10.00 Det=-5.99D-09
 Inversion failed.  Reducing to 14 matrices.
 Large coefficients: NSaved= 14 BigCof=   11.36 CofMax=   10.00 Det=-6.55D-09
 Inversion failed.  Reducing to 13 matrices.
 Large coefficients: NSaved= 13 BigCof=   10.39 CofMax=   10.00 Det=-6.85D-09
 Inversion failed.  Reducing to 12 matrices.
 Large coefficients: NSaved= 12 BigCof=   10.31 CofMax=   10.00 Det=-6.86D-09
 Inversion failed.  Reducing to 11 matrices.
 EnCoef did   100 forward-backward iterations
 Rare condition: small coef for last iteration:  0.000D+00
 Coeff-Com: -0.313D-02-0.930D-02-0.183D-01 0.183D+00 0.201D+00 0.288D-01
 Coeff-Com: -0.326D+00-0.122D+00 0.574D+00 0.542D+01-0.493D+01
 Coeff-En:   0.000D+00 0.000D+00 0.000D+00 0.000D+00 0.593D+00 0.000D+00
 Coeff-En:   0.000D+00 0.000D+00 0.000D+00 0.000D+00 0.407D+00
 Coeff:     -0.313D-02-0.930D-02-0.183D-01 0.183D+00 0.201D+00 0.288D-01
 Coeff:     -0.326D+00-0.122D+00 0.574D+00 0.542D+01-0.493D+01
 Gap=     0.015 Goal=   None    Shift=    0.000
 RMSDP=1.34D-03 MaxDP=1.57D-01 DE= 9.79D-04 OVMax= 2.96D-02

 Cycle  23  Pass 1  IDiag  1:
 RMSU=  6.85D-04    CP:  1.01D+00  3.00D+00
 E= -2200.29824989771     Delta-E=        0.005602798014 Rises=F Damp=F
 DIIS: error= 4.51D-03 at cycle  23 NSaved=  12.
 NSaved=12 IEnMin= 6 EnMin= -2200.31227822141     IErMin= 5 ErrMin= 9.57D-04
 ErrMax= 4.51D-03  0.00D+00 EMaxC= 1.00D-01 BMatC= 1.05D-02 BMatP= 1.24D-03
 IDIUse=3 WtCom= 9.90D-01 WtEn= 9.57D-03
 EnCoef did   100 forward-backward iterations
 Rare condition: small coef for last iteration:  0.000D+00
 Coeff-Com: -0.554D-02-0.443D-01-0.610D-01 0.256D+00 0.221D+00-0.883D-01
 Coeff-Com: -0.188D+00-0.623D+00-0.887D+00 0.933D+01-0.783D+01 0.921D+00
 Coeff-En:   0.000D+00 0.000D+00 0.000D+00 0.000D+00 0.654D+00 0.000D+00
 Coeff-En:   0.000D+00 0.000D+00 0.000D+00 0.000D+00 0.000D+00 0.346D+00
 Coeff:     -0.554D-02-0.443D-01-0.610D-01 0.256D+00 0.221D+00-0.883D-01
 Coeff:     -0.188D+00-0.623D+00-0.887D+00 0.933D+01-0.783D+01 0.921D+00
 Gap=     0.015 Goal=   None    Shift=    0.000
 RMSDP=3.33D-04 MaxDP=3.96D-02 DE= 5.60D-03 OVMax= 8.08D-03

 Cycle  24  Pass 1  IDiag  1:
 RMSU=  5.70D-05    CP:  1.01D+00  3.00D+00  1.42D+00
 E= -2200.29656454219     Delta-E=        0.001685355516 Rises=F Damp=F
 DIIS: error= 4.79D-03 at cycle  24 NSaved=  13.
 NSaved=13 IEnMin= 6 EnMin= -2200.31227822141     IErMin= 5 ErrMin= 9.57D-04
 ErrMax= 4.79D-03  0.00D+00 EMaxC= 1.00D-01 BMatC= 1.15D-02 BMatP= 1.24D-03
 IDIUse=3 WtCom= 9.90D-01 WtEn= 9.57D-03
 EnCoef did   100 forward-backward iterations
 Rare condition: small coef for last iteration:  0.000D+00
 Coeff-Com: -0.568D-02-0.438D-01-0.628D-01 0.251D+00 0.228D+00-0.862D-01
 Coeff-Com: -0.203D+00-0.808D+00-0.134D+01 0.999D+01-0.823D+01 0.105D+01
 Coeff-Com:  0.251D+00
 Coeff-En:   0.000D+00 0.000D+00 0.000D+00 0.000D+00 0.667D+00 0.000D+00
 Coeff-En:   0.000D+00 0.000D+00 0.000D+00 0.000D+00 0.000D+00 0.000D+00
 Coeff-En:   0.333D+00
 Coeff:     -0.568D-02-0.438D-01-0.628D-01 0.251D+00 0.228D+00-0.862D-01
 Coeff:     -0.203D+00-0.808D+00-0.134D+01 0.999D+01-0.823D+01 0.105D+01
 Coeff:      0.251D+00
 Gap=     0.015 Goal=   None    Shift=    0.000
 RMSDP=1.04D-04 MaxDP=1.20D-02 DE= 1.69D-03 OVMax= 2.36D-03

 Cycle  25  Pass 1  IDiag  1:
 RMSU=  1.63D-05    CP:  1.01D+00  3.00D+00  1.29D+00  8.47D-01
 E= -2200.29708758154     Delta-E=       -0.000523039349 Rises=F Damp=F
 DIIS: error= 4.70D-03 at cycle  25 NSaved=  14.
 NSaved=14 IEnMin= 6 EnMin= -2200.31227822141     IErMin= 5 ErrMin= 9.57D-04
 ErrMax= 4.70D-03  0.00D+00 EMaxC= 1.00D-01 BMatC= 1.12D-02 BMatP= 1.24D-03
 IDIUse=3 WtCom= 9.90D-01 WtEn= 9.57D-03
 EnCoef did   100 forward-backward iterations
 Coeff-Com: -0.444D-02-0.437D-01-0.629D-01 0.241D+00 0.237D+00-0.676D-01
 Coeff-Com: -0.181D+00-0.835D+00-0.174D+01 0.950D+01-0.738D+01 0.980D+00
 Coeff-Com: -0.739D+00 0.109D+01
 Coeff-En:   0.000D+00 0.000D+00 0.000D+00 0.000D+00 0.342D+00 0.654D+00
 Coeff-En:   0.000D+00 0.000D+00 0.000D+00 0.263D-03 0.944D-03 0.120D-03
 Coeff-En:   0.000D+00 0.315D-02
 Coeff:     -0.440D-02-0.433D-01-0.623D-01 0.238D+00 0.238D+00-0.607D-01
 Coeff:     -0.180D+00-0.827D+00-0.172D+01 0.941D+01-0.731D+01 0.970D+00
 Coeff:     -0.732D+00 0.108D+01
 Gap=     0.015 Goal=   None    Shift=    0.000
 RMSDP=3.87D-04 MaxDP=4.57D-02 DE=-5.23D-04 OVMax= 8.64D-03

 Cycle  26  Pass 1  IDiag  1:
 RMSU=  2.24D-05    CP:  1.01D+00  3.00D+00  8.10D-01  2.80D-01  3.00D+00
 E= -2200.29891649089     Delta-E=       -0.001828909346 Rises=F Damp=F
 DIIS: error= 4.41D-03 at cycle  26 NSaved=  15.
 NSaved=15 IEnMin= 6 EnMin= -2200.31227822141     IErMin= 5 ErrMin= 9.57D-04
 ErrMax= 4.41D-03  0.00D+00 EMaxC= 1.00D-01 BMatC= 1.00D-02 BMatP= 1.24D-03
 IDIUse=3 WtCom= 9.90D-01 WtEn= 9.57D-03
 Large coefficients: NSaved= 15 BigCof=   14.04 CofMax=   10.00 Det=-1.75D-09
 Inversion failed.  Reducing to 14 matrices.
 Large coefficients: NSaved= 14 BigCof=   10.16 CofMax=   10.00 Det=-2.86D-09
 Inversion failed.  Reducing to 13 matrices.
 EnCoef did   100 forward-backward iterations
 Rare condition: small coef for last iteration:  0.000D+00
 Coeff-Com: -0.537D-01-0.741D-01 0.241D+00 0.246D+00-0.634D-01-0.931D+00
 Coeff-Com: -0.297D+01 0.951D+01-0.614D+01 0.881D+00-0.180D+01 0.176D+01
 Coeff-Com:  0.399D+00
 Coeff-En:   0.000D+00 0.000D+00 0.000D+00 0.648D+00 0.000D+00 0.000D+00
 Coeff-En:   0.000D+00 0.000D+00 0.000D+00 0.000D+00 0.000D+00 0.000D+00
 Coeff-En:   0.352D+00
 Coeff:     -0.537D-01-0.741D-01 0.241D+00 0.246D+00-0.634D-01-0.931D+00
 Coeff:     -0.297D+01 0.951D+01-0.614D+01 0.881D+00-0.180D+01 0.176D+01
 Coeff:      0.399D+00
 Gap=     0.016 Goal=   None    Shift=    0.000
 RMSDP=3.71D-04 MaxDP=4.27D-02 DE=-1.83D-03 OVMax= 8.17D-03

 Cycle  27  Pass 1  IDiag  1:
 RMSU=  2.03D-05    CP:  1.01D+00  3.00D+00  3.47D-01 -4.40D-03  3.00D+00
                    CP:  1.42D+00
 E= -2200.30056926744     Delta-E=       -0.001652776555 Rises=F Damp=F
 DIIS: error= 4.14D-03 at cycle  27 NSaved=  14.
 NSaved=14 IEnMin= 5 EnMin= -2200.31227822141     IErMin= 4 ErrMin= 9.57D-04
 ErrMax= 4.14D-03  0.00D+00 EMaxC= 1.00D-01 BMatC= 8.98D-03 BMatP= 1.24D-03
 IDIUse=3 WtCom= 9.90D-01 WtEn= 9.57D-03
 Large coefficients: NSaved= 14 BigCof=   14.46 CofMax=   10.00 Det=-2.73D-09
 Inversion failed.  Reducing to 13 matrices.
 Large coefficients: NSaved= 13 BigCof=   12.52 CofMax=   10.00 Det=-8.68D-09
 Inversion failed.  Reducing to 12 matrices.
 EnCoef did   100 forward-backward iterations
 Coeff-Com: -0.505D-01-0.575D-01 0.276D+00 0.172D+00-0.106D+00-0.152D+00
 Coeff-Com:  0.865D+01-0.780D+01 0.543D+00-0.529D+00-0.249D+01 0.255D+01
 Coeff-En:   0.000D+00 0.000D+00 0.000D+00 0.342D+00 0.653D+00 0.000D+00
 Coeff-En:   0.242D-03 0.567D-03 0.000D+00 0.000D+00 0.000D+00 0.434D-02
 Coeff:     -0.501D-01-0.569D-01 0.274D+00 0.174D+00-0.986D-01-0.150D+00
 Coeff:      0.856D+01-0.773D+01 0.538D+00-0.524D+00-0.246D+01 0.252D+01
 Gap=     0.015 Goal=   None    Shift=    0.000
 RMSDP=2.38D-04 MaxDP=2.76D-02 DE=-1.65D-03 OVMax= 5.52D-03

 Cycle  28  Pass 1  IDiag  1:
 RMSU=  1.57D-05    CP:  1.01D+00  3.00D+00  6.42D-01 -2.52D-02  1.79D+00
                    CP:  2.03D+00 -4.15D-02
 E= -2200.29946430320     Delta-E=        0.001104964239 Rises=F Damp=F
 DIIS: error= 4.32D-03 at cycle  28 NSaved=  13.
 NSaved=13 IEnMin= 5 EnMin= -2200.31227822141     IErMin= 4 ErrMin= 9.57D-04
 ErrMax= 4.32D-03  0.00D+00 EMaxC= 1.00D-01 BMatC= 9.70D-03 BMatP= 1.24D-03
 IDIUse=3 WtCom= 9.90D-01 WtEn= 9.57D-03
 Large coefficients: NSaved= 13 BigCof=   12.14 CofMax=   10.00 Det=-2.67D-09
 Inversion failed.  Reducing to 12 matrices.
 EnCoef did   100 forward-backward iterations
 Rare condition: small coef for last iteration:  0.114D-15
 Coeff-Com: -0.590D-01-0.677D-01 0.292D+00 0.180D+00-0.132D+00-0.418D+00
 Coeff-Com:  0.983D+01-0.918D+01 0.719D+00-0.448D+01 0.370D+01 0.622D+00
 Coeff-En:   0.000D+00 0.000D+00 0.000D+00 0.643D+00 0.000D+00 0.000D+00
 Coeff-En:   0.000D+00 0.000D+00 0.000D+00 0.000D+00 0.000D+00 0.357D+00
 Coeff:     -0.590D-01-0.677D-01 0.292D+00 0.180D+00-0.132D+00-0.418D+00
 Coeff:      0.983D+01-0.918D+01 0.719D+00-0.448D+01 0.370D+01 0.622D+00
 Gap=     0.015 Goal=   None    Shift=    0.000
 RMSDP=3.35D-04 MaxDP=3.96D-02 DE= 1.10D-03 OVMax= 7.44D-03

 Cycle  29  Pass 1  IDiag  1:
 RMSU=  4.22D-06    CP:  1.01D+00  3.00D+00  1.06D+00  4.96D-01  6.46D-01
                    CP:  9.99D-01  1.93D-02  7.71D-01
 E= -2200.29794485130     Delta-E=        0.001519451898 Rises=F Damp=F
 DIIS: error= 4.57D-03 at cycle  29 NSaved=  13.
 NSaved=13 IEnMin= 5 EnMin= -2200.31227822141     IErMin= 4 ErrMin= 9.57D-04
 ErrMax= 4.57D-03  0.00D+00 EMaxC= 1.00D-01 BMatC= 1.07D-02 BMatP= 1.24D-03
 IDIUse=3 WtCom= 9.90D-01 WtEn= 9.57D-03
 Large coefficients: NSaved= 13 BigCof=   11.38 CofMax=   10.00 Det=-5.48D-09
 Inversion failed.  Reducing to 12 matrices.
 EnCoef did   100 forward-backward iterations
 Rare condition: small coef for last iteration:  0.000D+00
 Coeff-Com: -0.356D-01-0.352D-01 0.245D+00 0.155D+00-0.557D-01 0.110D+01
 Coeff-Com:  0.721D+01-0.705D+01-0.369D+01 0.290D+01-0.590D+00 0.845D+00
 Coeff-En:   0.000D+00 0.000D+00 0.000D+00 0.656D+00 0.000D+00 0.000D+00
 Coeff-En:   0.000D+00 0.000D+00 0.000D+00 0.000D+00 0.000D+00 0.344D+00
 Coeff:     -0.356D-01-0.352D-01 0.245D+00 0.155D+00-0.557D-01 0.110D+01
 Coeff:      0.721D+01-0.705D+01-0.369D+01 0.290D+01-0.590D+00 0.845D+00
 Gap=     0.015 Goal=   None    Shift=    0.000
 RMSDP=3.69D-04 MaxDP=4.34D-02 DE= 1.52D-03 OVMax= 8.51D-03

 Cycle  30  Pass 1  IDiag  1:
 RMSU=  5.94D-06    CP:  1.01D+00  3.00D+00  5.95D-01 -1.41D-01  2.79D-01
                    CP:  1.34D+00  9.83D-03  6.06D-01  5.32D-01
 E= -2200.29967945121     Delta-E=       -0.001734599904 Rises=F Damp=F
 DIIS: error= 4.28D-03 at cycle  30 NSaved=  13.
 NSaved=13 IEnMin= 5 EnMin= -2200.31227822141     IErMin= 4 ErrMin= 9.57D-04
 ErrMax= 4.28D-03  0.00D+00 EMaxC= 1.00D-01 BMatC= 9.57D-03 BMatP= 1.24D-03
 IDIUse=3 WtCom= 9.90D-01 WtEn= 9.57D-03
 Large coefficients: NSaved= 13 BigCof=   10.88 CofMax=   10.00 Det=-6.24D-09
 Inversion failed.  Reducing to 12 matrices.
 EnCoef did   100 forward-backward iterations
 Coeff-Com: -0.370D-01-0.428D-01 0.258D+00 0.156D+00-0.772D-01 0.586D+00
 Coeff-Com:  0.720D+01-0.645D+01 0.467D+00 0.328D+00-0.194D+01 0.547D+00
 Coeff-En:   0.000D+00 0.000D+00 0.000D+00 0.342D+00 0.653D+00 0.000D+00
 Coeff-En:   0.245D-03 0.574D-03 0.110D-03 0.000D+00 0.000D+00 0.398D-02
 Coeff:     -0.366D-01-0.424D-01 0.255D+00 0.158D+00-0.703D-01 0.581D+00
 Coeff:      0.714D+01-0.638D+01 0.463D+00 0.325D+00-0.193D+01 0.542D+00
 Gap=     0.015 Goal=   None    Shift=    0.000
 RMSDP=3.23D-05 MaxDP=2.92D-03 DE=-1.73D-03 OVMax= 1.04D-03

 Cycle  31  Pass 1  IDiag  1:
 RMSU=  6.48D-06    CP:  1.01D+00  3.00D+00  6.19D-01 -1.03D-01  1.05D+00
                    CP:  2.17D+00 -3.53D-02  1.08D+00 -5.60D-01 -7.20D-01
 E= -2200.29949910112     Delta-E=        0.000180350089 Rises=F Damp=F
 DIIS: error= 4.32D-03 at cycle  31 NSaved=  13.
 NSaved=13 IEnMin= 5 EnMin= -2200.31227822141     IErMin= 4 ErrMin= 9.57D-04
 ErrMax= 4.32D-03  0.00D+00 EMaxC= 1.00D-01 BMatC= 9.69D-03 BMatP= 1.24D-03
 IDIUse=3 WtCom= 9.90D-01 WtEn= 9.57D-03
 EnCoef did   100 forward-backward iterations
 Rare condition: small coef for last iteration:  0.286D-15
 Coeff-Com: -0.455D-01-0.553D-01 0.276D+00 0.166D+00-0.111D+00 0.133D+00
 Coeff-Com:  0.814D+01-0.725D+01 0.564D+00-0.289D-01-0.217D+01 0.584D+00
 Coeff-Com:  0.795D+00
 Coeff-En:   0.000D+00 0.000D+00 0.000D+00 0.643D+00 0.000D+00 0.000D+00
 Coeff-En:   0.000D+00 0.000D+00 0.000D+00 0.000D+00 0.000D+00 0.000D+00
 Coeff-En:   0.357D+00
 Coeff:     -0.455D-01-0.553D-01 0.276D+00 0.166D+00-0.111D+00 0.133D+00
 Coeff:      0.814D+01-0.725D+01 0.564D+00-0.289D-01-0.217D+01 0.584D+00
 Coeff:      0.795D+00
 Gap=     0.015 Goal=   None    Shift=    0.000
 RMSDP=3.93D-04 MaxDP=4.60D-02 DE= 1.80D-04 OVMax= 8.63D-03

 Cycle  32  Pass 1  IDiag  1:
 RMSU=  4.31D-06    CP:  1.01D+00  3.00D+00  1.10D+00  4.96D-01 -5.85D-01
                    CP:  7.60D-01 -7.05D-02  6.71D-01 -9.59D-01 -2.73D-01
                    CP: -1.51D-01
 E= -2200.29772499393     Delta-E=        0.001774107190 Rises=F Damp=F
 DIIS: error= 4.60D-03 at cycle  32 NSaved=  14.
 NSaved=14 IEnMin= 5 EnMin= -2200.31227822141     IErMin= 4 ErrMin= 9.57D-04
 ErrMax= 4.60D-03  0.00D+00 EMaxC= 1.00D-01 BMatC= 1.08D-02 BMatP= 1.24D-03
 IDIUse=3 WtCom= 9.90D-01 WtEn= 9.57D-03
 Large coefficients: NSaved= 14 BigCof=   13.50 CofMax=   10.00 Det=-3.95D-09
 Inversion failed.  Reducing to 13 matrices.
 EnCoef did   100 forward-backward iterations
 Rare condition: small coef for last iteration:  0.000D+00
 Coeff-Com: -0.388D-01-0.432D-01 0.245D+00 0.174D+00-0.452D-01-0.821D-01
 Coeff-Com:  0.713D+01-0.560D+01 0.573D-01-0.547D+00 0.550D+00 0.281D+00
 Coeff-Com: -0.108D+01
 Coeff-En:   0.000D+00 0.000D+00 0.000D+00 0.658D+00 0.000D+00 0.000D+00
 Coeff-En:   0.000D+00 0.000D+00 0.000D+00 0.000D+00 0.000D+00 0.000D+00
 Coeff-En:   0.342D+00
 Coeff:     -0.388D-01-0.432D-01 0.245D+00 0.174D+00-0.452D-01-0.821D-01
 Coeff:      0.713D+01-0.560D+01 0.573D-01-0.547D+00 0.550D+00 0.281D+00
 Coeff:     -0.108D+01
 Gap=     0.015 Goal=   None    Shift=    0.000
 RMSDP=3.51D-04 MaxDP=4.15D-02 DE= 1.77D-03 OVMax= 7.82D-03

 Cycle  33  Pass 1  IDiag  1:
 RMSU=  7.66D-06    CP:  1.01D+00  3.00D+00  6.66D-01 -2.97D-02  5.27D-01
                    CP:  1.64D+00 -6.22D-02  1.04D+00 -7.48D-01 -1.10D-02
                    CP: -4.61D-01  7.32D-01
 E= -2200.29935024722     Delta-E=       -0.001625253287 Rises=F Damp=F
 DIIS: error= 4.34D-03 at cycle  33 NSaved=  14.
 NSaved=14 IEnMin= 5 EnMin= -2200.31227822141     IErMin= 4 ErrMin= 9.57D-04
 ErrMax= 4.34D-03  0.00D+00 EMaxC= 1.00D-01 BMatC= 9.78D-03 BMatP= 1.24D-03
 IDIUse=3 WtCom= 9.90D-01 WtEn= 9.57D-03
 Large coefficients: NSaved= 14 BigCof=   16.61 CofMax=   10.00 Det=-4.00D-09
 Inversion failed.  Reducing to 13 matrices.
 EnCoef did   100 forward-backward iterations
 Coeff-Com: -0.243D-01-0.266D-01 0.223D+00 0.157D+00-0.177D-01 0.725D+00
 Coeff-Com:  0.542D+01-0.456D+01 0.103D+00 0.585D+00-0.188D+00-0.207D+01
 Coeff-Com:  0.676D+00
 Coeff-En:   0.000D+00 0.000D+00 0.000D+00 0.342D+00 0.653D+00 0.000D+00
 Coeff-En:   0.246D-03 0.578D-03 0.110D-03 0.177D-04 0.183D-04 0.000D+00
 Coeff-En:   0.386D-02
 Coeff:     -0.241D-01-0.263D-01 0.221D+00 0.158D+00-0.113D-01 0.718D+00
 Coeff:      0.536D+01-0.451D+01 0.102D+00 0.580D+00-0.186D+00-0.205D+01
 Coeff:      0.670D+00
 Gap=     0.015 Goal=   None    Shift=    0.000
 RMSDP=3.63D-04 MaxDP=4.24D-02 DE=-1.63D-03 OVMax= 8.08D-03

 Cycle  34  Pass 1  IDiag  1:
 RMSU=  4.61D-06    CP:  1.01D+00  3.00D+00  2.23D-01 -5.94D-01  2.18D+00
                    CP:  2.95D+00  5.06D-02  1.21D+00  1.17D+00 -4.10D-01
                    CP:  1.56D+00 -1.58D+00  5.24D-01
 E= -2200.30092292703     Delta-E=       -0.001572679815 Rises=F Damp=F
 DIIS: error= 4.08D-03 at cycle  34 NSaved=  14.
 NSaved=14 IEnMin= 5 EnMin= -2200.31227822141     IErMin= 4 ErrMin= 9.57D-04
 ErrMax= 4.08D-03  0.00D+00 EMaxC= 1.00D-01 BMatC= 8.78D-03 BMatP= 1.24D-03
 IDIUse=3 WtCom= 9.90D-01 WtEn= 9.57D-03
 EnCoef did   100 forward-backward iterations
 Rare condition: small coef for last iteration: -0.343D-15
 Coeff-Com: -0.302D-01-0.374D-01 0.233D+00 0.168D+00-0.454D-01-0.247D-01
 Coeff-Com:  0.590D+01-0.475D+01 0.184D-01 0.245D+00-0.283D+01-0.116D+01
 Coeff-Com:  0.107D+01 0.224D+01
 Coeff-En:   0.000D+00 0.000D+00 0.000D+00 0.629D+00 0.000D+00 0.000D+00
 Coeff-En:   0.000D+00 0.000D+00 0.000D+00 0.000D+00 0.000D+00 0.000D+00
 Coeff-En:   0.000D+00 0.371D+00
 Coeff:     -0.302D-01-0.374D-01 0.233D+00 0.168D+00-0.454D-01-0.247D-01
 Coeff:      0.590D+01-0.475D+01 0.184D-01 0.245D+00-0.283D+01-0.116D+01
 Coeff:      0.107D+01 0.224D+01
 Gap=     0.015 Goal=   None    Shift=    0.000
 RMSDP=1.74D-04 MaxDP=2.05D-02 DE=-1.57D-03 OVMax= 3.99D-03

 Cycle  35  Pass 1  IDiag  1:
 RMSU=  8.77D-06    CP:  1.01D+00  3.00D+00  4.39D-01 -2.03D-01  1.11D+00
                    CP:  2.49D+00  1.08D-01  1.53D+00  2.92D+00  9.24D-01
                    CP:  2.00D+00 -2.38D+00  1.95D+00  2.04D+00
 E= -2200.30017077287     Delta-E=        0.000752154161 Rises=F Damp=F
 DIIS: error= 4.22D-03 at cycle  35 NSaved=  15.
 NSaved=15 IEnMin= 5 EnMin= -2200.31227822141     IErMin= 4 ErrMin= 9.57D-04
 ErrMax= 4.22D-03  0.00D+00 EMaxC= 1.00D-01 BMatC= 9.26D-03 BMatP= 1.24D-03
 IDIUse=3 WtCom= 9.90D-01 WtEn= 9.57D-03
 EnCoef did   100 forward-backward iterations
 Rare condition: small coef for last iteration:  0.000D+00
 Coeff-Com: -0.333D-01-0.427D-01 0.241D+00 0.175D+00-0.581D-01 0.560D-01
 Coeff-Com:  0.572D+01-0.480D+01 0.758D-01 0.410D+00-0.224D+01-0.158D+01
 Coeff-Com:  0.114D+01 0.271D+01-0.768D+00
 Coeff-En:   0.000D+00 0.000D+00 0.000D+00 0.636D+00 0.000D+00 0.000D+00
 Coeff-En:   0.000D+00 0.000D+00 0.000D+00 0.000D+00 0.000D+00 0.000D+00
 Coeff-En:   0.000D+00 0.000D+00 0.364D+00
 Coeff:     -0.333D-01-0.427D-01 0.241D+00 0.175D+00-0.581D-01 0.560D-01
 Coeff:      0.572D+01-0.480D+01 0.758D-01 0.410D+00-0.224D+01-0.158D+01
 Coeff:      0.114D+01 0.271D+01-0.768D+00
 Gap=     0.015 Goal=   None    Shift=    0.000
 RMSDP=1.39D-04 MaxDP=1.60D-02 DE= 7.52D-04 OVMax= 3.22D-03

 Cycle  36  Pass 1  IDiag  1:
 RMSU=  3.89D-06    CP:  1.01D+00  3.00D+00  6.13D-01 -2.38D-02  9.61D-01
                    CP:  2.36D+00  8.43D-02  1.30D+00  2.34D+00  1.99D-01
                    CP:  1.69D+00 -9.21D-01  8.17D-01  5.99D-01  7.25D-01
 E= -2200.29953604024     Delta-E=        0.000634732634 Rises=F Damp=F
 DIIS: error= 4.32D-03 at cycle  36 NSaved=  16.
 NSaved=16 IEnMin= 5 EnMin= -2200.31227822141     IErMin= 4 ErrMin= 9.57D-04
 ErrMax= 4.32D-03  0.00D+00 EMaxC= 1.00D-01 BMatC= 9.66D-03 BMatP= 1.24D-03
 IDIUse=3 WtCom= 9.90D-01 WtEn= 9.57D-03
 EnCoef did   100 forward-backward iterations
 Rare condition: small coef for last iteration:  0.000D+00
 Coeff-Com: -0.424D-01-0.590D-01 0.259D+00 0.186D+00-0.114D+00-0.128D+01
 Coeff-Com:  0.694D+01-0.516D+01-0.294D+00-0.142D+00-0.741D+01-0.523D-01
 Coeff-Com:  0.232D+01 0.706D+01-0.411D+01 0.290D+01
 Coeff-En:   0.000D+00 0.000D+00 0.000D+00 0.642D+00 0.000D+00 0.000D+00
 Coeff-En:   0.000D+00 0.000D+00 0.000D+00 0.000D+00 0.000D+00 0.000D+00
 Coeff-En:   0.000D+00 0.000D+00 0.000D+00 0.358D+00
 Coeff:     -0.424D-01-0.590D-01 0.259D+00 0.186D+00-0.114D+00-0.128D+01
 Coeff:      0.694D+01-0.516D+01-0.294D+00-0.142D+00-0.741D+01-0.523D-01
 Coeff:      0.232D+01 0.706D+01-0.411D+01 0.290D+01
 Gap=     0.015 Goal=   None    Shift=    0.000
 RMSDP=7.98D-05 MaxDP=9.12D-03 DE= 6.35D-04 OVMax= 1.69D-03

 Cycle  37  Pass 1  IDiag  1:
 RMSU=  4.33D-06    CP:  1.01D+00  3.00D+00  5.15D-01 -1.25D-01  1.26D+00
                    CP:  2.53D+00  1.53D-01  1.26D+00  2.79D+00 -4.20D-01
                    CP:  1.78D+00 -1.39D+00 -7.93D-02 -6.92D-01  5.38D-02
                    CP:  1.37D+00
 E= -2200.29989718012     Delta-E=       -0.000361139888 Rises=F Damp=F
 DIIS: error= 4.25D-03 at cycle  37 NSaved=  17.
 NSaved=17 IEnMin= 5 EnMin= -2200.31227822141     IErMin= 4 ErrMin= 9.57D-04
 ErrMax= 4.25D-03  0.00D+00 EMaxC= 1.00D-01 BMatC= 9.42D-03 BMatP= 1.24D-03
 IDIUse=3 WtCom= 9.90D-01 WtEn= 9.57D-03
 EnCoef did   100 forward-backward iterations
 Coeff-Com: -0.445D-01-0.638D-01 0.262D+00 0.195D+00-0.124D+00-0.162D+01
 Coeff-Com:  0.707D+01-0.499D+01 0.922D-03 0.970D-01-0.544D+01-0.708D+00
 Coeff-Com:  0.205D+01 0.594D+01-0.357D+01 0.326D+01-0.132D+01
 Coeff-En:   0.000D+00 0.000D+00 0.000D+00 0.342D+00 0.653D+00 0.000D+00
 Coeff-En:   0.244D-03 0.512D-03 0.000D+00 0.000D+00 0.000D+00 0.000D+00
 Coeff-En:   0.000D+00 0.101D-03 0.341D-04 0.000D+00 0.406D-02
 Coeff:     -0.441D-01-0.632D-01 0.260D+00 0.196D+00-0.116D+00-0.160D+01
 Coeff:      0.701D+01-0.494D+01 0.913D-03 0.960D-01-0.539D+01-0.701D+00
 Coeff:      0.203D+01 0.588D+01-0.353D+01 0.323D+01-0.131D+01
 Gap=     0.015 Goal=   None    Shift=    0.000
 RMSDP=5.15D-05 MaxDP=6.07D-03 DE=-3.61D-04 OVMax= 1.15D-03

 Cycle  38  Pass 1  IDiag  1:
 RMSU=  3.49D-06    CP:  1.01D+00  3.00D+00  4.54D-01 -1.36D-01  1.88D+00
                    CP:  2.67D+00  9.32D-02  1.25D+00  1.75D+00 -4.69D-01
                    CP:  2.19D+00 -1.72D+00  1.84D-01  9.22D-02  4.07D-01
                    CP:  7.61D-02  9.17D-01
 E= -2200.30010730044     Delta-E=       -0.000210120318 Rises=F Damp=F
 DIIS: error= 4.22D-03 at cycle  38 NSaved=  18.
 NSaved=18 IEnMin= 5 EnMin= -2200.31227822141     IErMin= 4 ErrMin= 9.57D-04
 ErrMax= 4.22D-03  0.00D+00 EMaxC= 1.00D-01 BMatC= 9.29D-03 BMatP= 1.24D-03
 IDIUse=3 WtCom= 9.90D-01 WtEn= 9.57D-03
 EnCoef did   100 forward-backward iterations
 Rare condition: small coef for last iteration:  0.000D+00
 Coeff-Com: -0.527D-01-0.803D-01 0.279D+00 0.208D+00-0.175D+00-0.311D+01
 Coeff-Com:  0.790D+01-0.477D+01-0.345D+00-0.285D+00-0.986D+01 0.588D+00
 Coeff-Com:  0.319D+01 0.955D+01-0.646D+01 0.610D+01-0.387D+01 0.220D+01
 Coeff-En:   0.000D+00 0.000D+00 0.000D+00 0.637D+00 0.000D+00 0.000D+00
 Coeff-En:   0.000D+00 0.000D+00 0.000D+00 0.000D+00 0.000D+00 0.000D+00
 Coeff-En:   0.000D+00 0.000D+00 0.000D+00 0.000D+00 0.000D+00 0.363D+00
 Coeff:     -0.527D-01-0.803D-01 0.279D+00 0.208D+00-0.175D+00-0.311D+01
 Coeff:      0.790D+01-0.477D+01-0.345D+00-0.285D+00-0.986D+01 0.588D+00
 Coeff:      0.319D+01 0.955D+01-0.646D+01 0.610D+01-0.387D+01 0.220D+01
 Gap=     0.015 Goal=   None    Shift=    0.000
 RMSDP=1.22D-04 MaxDP=1.44D-02 DE=-2.10D-04 OVMax= 2.70D-03

 Cycle  39  Pass 1  IDiag  1:
 RMSU=  3.12D-06    CP:  1.01D+00  3.00D+00  5.99D-01  2.38D-01  1.33D+00
                    CP:  1.91D+00  1.14D-01  1.07D+00  1.68D+00  2.47D-01
                    CP:  2.00D+00 -1.36D+00  4.06D-01  1.12D-01  4.15D-01
                    CP: -3.77D-01  1.14D-01  9.05D-01
 E= -2200.29959359272     Delta-E=        0.000513707721 Rises=F Damp=F
 DIIS: error= 4.31D-03 at cycle  39 NSaved=  19.
 NSaved=19 IEnMin= 5 EnMin= -2200.31227822141     IErMin= 4 ErrMin= 9.57D-04
 ErrMax= 4.31D-03  0.00D+00 EMaxC= 1.00D-01 BMatC= 9.62D-03 BMatP= 1.24D-03
 IDIUse=3 WtCom= 9.90D-01 WtEn= 9.57D-03
 Large coefficients: NSaved= 19 BigCof=   20.65 CofMax=   10.00 Det=-6.73D-10
 Inversion failed.  Reducing to 18 matrices.
 EnCoef did   100 forward-backward iterations
 Rare condition: small coef for last iteration:  0.000D+00
 Coeff-Com: -0.491D-01-0.737D-01 0.267D+00 0.212D+00-0.147D+00-0.248D+01
 Coeff-Com:  0.714D+01-0.463D+01-0.454D+00-0.170D+00-0.988D+01 0.348D+01
 Coeff-Com:  0.975D+01-0.693D+01 0.611D+01-0.435D+01 0.205D+01 0.116D+01
 Coeff-En:   0.000D+00 0.000D+00 0.000D+00 0.642D+00 0.000D+00 0.000D+00
 Coeff-En:   0.000D+00 0.000D+00 0.000D+00 0.000D+00 0.000D+00 0.000D+00
 Coeff-En:   0.000D+00 0.000D+00 0.000D+00 0.000D+00 0.000D+00 0.358D+00
 Coeff:     -0.491D-01-0.737D-01 0.267D+00 0.212D+00-0.147D+00-0.248D+01
 Coeff:      0.714D+01-0.463D+01-0.454D+00-0.170D+00-0.988D+01 0.348D+01
 Coeff:      0.975D+01-0.693D+01 0.611D+01-0.435D+01 0.205D+01 0.116D+01
 Gap=     0.015 Goal=   None    Shift=    0.000
 RMSDP=1.14D-04 MaxDP=1.38D-02 DE= 5.14D-04 OVMax= 2.50D-03

 Cycle  40  Pass 1  IDiag  1:
 RMSU=  2.61D-06    CP:  1.01D+00  3.00D+00  7.41D-01  3.94D-01  1.16D+00
                    CP:  1.62D+00  7.06D-02  9.83D-01  1.26D+00  1.15D-01
                    CP:  1.52D+00 -1.04D+00  2.52D-01  3.67D-01  4.40D-01
                    CP: -1.02D+00 -1.45D-01  1.34D+00  5.86D-01
 E= -2200.29908791854     Delta-E=        0.000505674184 Rises=F Damp=F
 DIIS: error= 4.39D-03 at cycle  40 NSaved=  19.
 NSaved=19 IEnMin= 5 EnMin= -2200.31227822141     IErMin= 4 ErrMin= 9.57D-04
 ErrMax= 4.39D-03  0.00D+00 EMaxC= 1.00D-01 BMatC= 9.93D-03 BMatP= 1.24D-03
 IDIUse=3 WtCom= 9.90D-01 WtEn= 9.57D-03
 Large coefficients: NSaved= 19 BigCof=   14.32 CofMax=   10.00 Det=-1.31D-09
 Inversion failed.  Reducing to 18 matrices.
 EnCoef did   100 forward-backward iterations
 Rare condition: small coef for last iteration:  0.000D+00
 Coeff-Com: -0.516D-01-0.778D-01 0.291D+00 0.182D+00-0.180D+00-0.314D+01
 Coeff-Com:  0.899D+01-0.522D+01 0.787D+00 0.569D+00 0.936D-01 0.111D+01
 Coeff-Com: -0.315D+00 0.239D+01-0.379D+01 0.290D+01-0.358D+00-0.318D+01
 Coeff-En:   0.000D+00 0.000D+00 0.000D+00 0.646D+00 0.000D+00 0.000D+00
 Coeff-En:   0.000D+00 0.000D+00 0.000D+00 0.000D+00 0.000D+00 0.000D+00
 Coeff-En:   0.000D+00 0.000D+00 0.000D+00 0.000D+00 0.000D+00 0.354D+00
 Coeff:     -0.516D-01-0.778D-01 0.291D+00 0.182D+00-0.180D+00-0.314D+01
 Coeff:      0.899D+01-0.522D+01 0.787D+00 0.569D+00 0.936D-01 0.111D+01
 Coeff:     -0.315D+00 0.239D+01-0.379D+01 0.290D+01-0.358D+00-0.318D+01
 Gap=     0.015 Goal=   None    Shift=    0.000
 RMSDP=1.00D-04 MaxDP=1.25D-02 DE= 5.06D-04 OVMax= 2.13D-03

 Cycle  41  Pass 1  IDiag  1:
 Restarting incremental Fock formation.
 E= -2200.29948983611     Delta-E=       -0.000401917574 Rises=F Damp=F
 DIIS: error= 4.33D-03 at cycle  41 NSaved=  19.
 NSaved=19 IEnMin= 5 EnMin= -2200.31227822141     IErMin= 4 ErrMin= 9.57D-04
 ErrMax= 4.33D-03  0.00D+00 EMaxC= 1.00D-01 BMatC= 9.69D-03 BMatP= 1.24D-03
 IDIUse=3 WtCom= 9.90D-01 WtEn= 9.57D-03
 EnCoef did   100 forward-backward iterations
 Coeff-Com: -0.525D-01-0.780D-01 0.294D+00 0.182D+00-0.179D+00-0.294D+01
 Coeff-Com:  0.936D+01-0.590D+01 0.761D+00 0.597D+00-0.288D+00 0.156D+01
 Coeff-Com: -0.767D+00 0.241D+01-0.370D+01 0.246D+01-0.168D+00-0.339D+01
 Coeff-Com:  0.838D+00
 Coeff-En:   0.000D+00 0.000D+00 0.000D+00 0.342D+00 0.653D+00 0.000D+00
 Coeff-En:   0.246D-03 0.516D-03 0.000D+00 0.000D+00 0.000D+00 0.102D-03
 Coeff-En:   0.752D-05 0.000D+00 0.000D+00 0.650D-04 0.125D-04 0.000D+00
 Coeff-En:   0.390D-02
 Coeff:     -0.520D-01-0.772D-01 0.291D+00 0.183D+00-0.171D+00-0.291D+01
 Coeff:      0.927D+01-0.584D+01 0.754D+00 0.591D+00-0.286D+00 0.154D+01
 Coeff:     -0.759D+00 0.239D+01-0.367D+01 0.244D+01-0.167D+00-0.335D+01
 Coeff:      0.830D+00
 Gap=     0.015 Goal=   None    Shift=    0.000
 RMSDP=5.33D-05 MaxDP=6.37D-03 DE=-4.02D-04 OVMax= 1.24D-03

 Cycle  42  Pass 1  IDiag  1:
 RMSU=  4.47D-05    CP:  1.00D+00
 E= -2200.29972621810     Delta-E=       -0.000236381993 Rises=F Damp=F
 DIIS: error= 4.29D-03 at cycle  42 NSaved=  20.
 NSaved=20 IEnMin= 5 EnMin= -2200.31227822141     IErMin= 4 ErrMin= 9.57D-04
 ErrMax= 4.29D-03  0.00D+00 EMaxC= 1.00D-01 BMatC= 9.54D-03 BMatP= 1.24D-03
 IDIUse=3 WtCom= 9.90D-01 WtEn= 9.57D-03
 EnCoef did   100 forward-backward iterations
 Rare condition: small coef for last iteration: -0.114D-15
 Coeff-Com: -0.533D-01-0.782D-01 0.281D+00 0.195D+00-0.172D+00-0.399D+01
 Coeff-Com:  0.994D+01-0.514D+01 0.111D+01 0.773D+00 0.250D+01-0.120D+01
 Coeff-Com:  0.109D+01 0.221D+01-0.522D+01 0.485D+01-0.170D+00-0.299D+01
 Coeff-Com:  0.196D+01-0.488D+01
 Coeff-En:   0.000D+00 0.000D+00 0.000D+00 0.641D+00 0.000D+00 0.000D+00
 Coeff-En:   0.000D+00 0.000D+00 0.000D+00 0.000D+00 0.000D+00 0.000D+00
 Coeff-En:   0.000D+00 0.000D+00 0.000D+00 0.000D+00 0.000D+00 0.000D+00
 Coeff-En:   0.000D+00 0.359D+00
 Coeff:     -0.533D-01-0.782D-01 0.281D+00 0.195D+00-0.172D+00-0.399D+01
 Coeff:      0.994D+01-0.514D+01 0.111D+01 0.773D+00 0.250D+01-0.120D+01
 Coeff:      0.109D+01 0.221D+01-0.522D+01 0.485D+01-0.170D+00-0.299D+01
 Coeff:      0.196D+01-0.488D+01
 Gap=     0.015 Goal=   None    Shift=    0.000
 RMSDP=7.26D-05 MaxDP=9.63D-03 DE=-2.36D-04 OVMax= 1.34D-03

 Cycle  43  Pass 1  IDiag  1:
 RMSU=  2.86D-05    CP:  9.99D-01  2.22D+00
 E= -2200.30002428420     Delta-E=       -0.000298066097 Rises=F Damp=F
 DIIS: error= 4.24D-03 at cycle  43 NSaved=  20.
 NSaved=20 IEnMin= 5 EnMin= -2200.31227822141     IErMin= 4 ErrMin= 9.57D-04
 ErrMax= 4.24D-03  0.00D+00 EMaxC= 1.00D-01 BMatC= 9.34D-03 BMatP= 1.24D-03
 IDIUse=3 WtCom= 9.90D-01 WtEn= 9.57D-03
 EnCoef did   100 forward-backward iterations
 Coeff-Com: -0.428D-01-0.542D-01 0.240D+00 0.193D+00-0.813D-01-0.282D+01
 Coeff-Com:  0.897D+01-0.469D+01 0.712D+00 0.530D+00 0.208D+01-0.199D+01
 Coeff-Com:  0.238D+01 0.329D+00-0.278D+01 0.275D+01-0.769D+00 0.183D+01
 Coeff-Com: -0.595D+01 0.158D+00
 Coeff-En:   0.000D+00 0.000D+00 0.000D+00 0.342D+00 0.653D+00 0.000D+00
 Coeff-En:   0.243D-03 0.511D-03 0.000D+00 0.000D+00 0.000D+00 0.101D-03
 Coeff-En:   0.745D-05 0.000D+00 0.000D+00 0.143D-04 0.000D+00 0.000D+00
 Coeff-En:   0.000D+00 0.411D-02
 Coeff:     -0.424D-01-0.537D-01 0.238D+00 0.194D+00-0.742D-01-0.279D+01
 Coeff:      0.888D+01-0.464D+01 0.706D+00 0.525D+00 0.206D+01-0.197D+01
 Coeff:      0.235D+01 0.325D+00-0.276D+01 0.272D+01-0.761D+00 0.182D+01
 Coeff:     -0.589D+01 0.157D+00
 Gap=     0.016 Goal=   None    Shift=    0.000
 RMSDP=4.25D-04 MaxDP=5.03D-02 DE=-2.98D-04 OVMax= 9.48D-03

 Cycle  44  Pass 1  IDiag  1:
 RMSU=  3.22D-04    CP:  9.96D-01  3.00D+00  3.00D+00
 E= -2200.30180989791     Delta-E=       -0.001785613704 Rises=F Damp=F
 DIIS: error= 3.94D-03 at cycle  44 NSaved=  20.
 NSaved=20 IEnMin= 5 EnMin= -2200.31227822141     IErMin= 4 ErrMin= 9.57D-04
 ErrMax= 3.94D-03  0.00D+00 EMaxC= 1.00D-01 BMatC= 8.21D-03 BMatP= 1.24D-03
 IDIUse=3 WtCom= 9.90D-01 WtEn= 9.57D-03
 EnCoef did   100 forward-backward iterations
 Rare condition: small coef for last iteration: -0.343D-15
 Coeff-Com: -0.497D-01-0.738D-01 0.276D+00 0.190D+00-0.161D+00-0.317D+01
 Coeff-Com:  0.829D+01-0.433D+01 0.733D+00 0.564D+00 0.197D+00 0.819D+00
 Coeff-Com:  0.725D-01 0.144D+01-0.263D+01 0.176D+01-0.123D+01-0.117D+01
 Coeff-Com: -0.169D+01 0.116D+01
 Coeff-En:   0.000D+00 0.000D+00 0.000D+00 0.619D+00 0.000D+00 0.000D+00
 Coeff-En:   0.000D+00 0.000D+00 0.000D+00 0.000D+00 0.000D+00 0.000D+00
 Coeff-En:   0.000D+00 0.000D+00 0.000D+00 0.000D+00 0.000D+00 0.000D+00
 Coeff-En:   0.000D+00 0.381D+00
 Coeff:     -0.497D-01-0.738D-01 0.276D+00 0.190D+00-0.161D+00-0.317D+01
 Coeff:      0.829D+01-0.433D+01 0.733D+00 0.564D+00 0.197D+00 0.819D+00
 Coeff:      0.725D-01 0.144D+01-0.263D+01 0.176D+01-0.123D+01-0.117D+01
 Coeff:     -0.169D+01 0.116D+01
 Gap=     0.016 Goal=   None    Shift=    0.000
 RMSDP=3.10D-04 MaxDP=3.62D-02 DE=-1.79D-03 OVMax= 6.87D-03

 Cycle  45  Pass 1  IDiag  1:
 RMSU=  9.52D-06    CP:  9.98D-01  3.00D+00  1.43D+00  1.95D-01
 E= -2200.30053053615     Delta-E=        0.001279361754 Rises=F Damp=F
 DIIS: error= 4.16D-03 at cycle  45 NSaved=  20.
 NSaved=20 IEnMin= 5 EnMin= -2200.31227822141     IErMin= 4 ErrMin= 9.57D-04
 ErrMax= 4.16D-03  0.00D+00 EMaxC= 1.00D-01 BMatC= 9.02D-03 BMatP= 1.24D-03
 IDIUse=3 WtCom= 9.90D-01 WtEn= 9.57D-03
 EnCoef did   100 forward-backward iterations
 Rare condition: small coef for last iteration:  0.000D+00
 Coeff-Com: -0.477D-01-0.694D-01 0.266D+00 0.198D+00-0.140D+00-0.249D+01
 Coeff-Com:  0.758D+01-0.442D+01 0.696D+00 0.637D+00 0.948D+00-0.490D-01
 Coeff-Com:  0.106D+01-0.225D+01 0.120D+01-0.112D+01-0.140D+01-0.230D+01
 Coeff-Com:  0.124D+01 0.146D+01
 Coeff-En:   0.000D+00 0.000D+00 0.000D+00 0.633D+00 0.000D+00 0.000D+00
 Coeff-En:   0.000D+00 0.000D+00 0.000D+00 0.000D+00 0.000D+00 0.000D+00
 Coeff-En:   0.000D+00 0.000D+00 0.000D+00 0.000D+00 0.000D+00 0.000D+00
 Coeff-En:   0.000D+00 0.367D+00
 Coeff:     -0.477D-01-0.694D-01 0.266D+00 0.198D+00-0.140D+00-0.249D+01
 Coeff:      0.758D+01-0.442D+01 0.696D+00 0.637D+00 0.948D+00-0.490D-01
 Coeff:      0.106D+01-0.225D+01 0.120D+01-0.112D+01-0.140D+01-0.230D+01
 Coeff:      0.124D+01 0.146D+01
 Gap=     0.015 Goal=   None    Shift=    0.000
 RMSDP=1.42D-04 MaxDP=1.68D-02 DE= 1.28D-03 OVMax= 3.14D-03

 Cycle  46  Pass 1  IDiag  1:
 RMSU=  1.03D-05    CP:  9.99D-01  1.75D+00  7.95D-01 -3.75D-03 -6.68D-01
 E= -2200.29992134895     Delta-E=        0.000609187196 Rises=F Damp=F
 DIIS: error= 4.26D-03 at cycle  46 NSaved=  20.
 NSaved=20 IEnMin= 5 EnMin= -2200.31227822141     IErMin= 4 ErrMin= 9.57D-04
 ErrMax= 4.26D-03  0.00D+00 EMaxC= 1.00D-01 BMatC= 9.41D-03 BMatP= 1.24D-03
 IDIUse=3 WtCom= 9.90D-01 WtEn= 9.57D-03
 EnCoef did   100 forward-backward iterations
 Rare condition: small coef for last iteration:  0.000D+00
 Coeff-Com: -0.427D-01-0.604D-01 0.253D+00 0.195D+00-0.112D+00-0.193D+01
 Coeff-Com:  0.708D+01-0.439D+01 0.638D+00 0.623D+00 0.589D+00 0.568D+00
[...]
   705    C   54  S      Ryd( 3S)     0.00008       0.33390
   706    C   54  px     Val( 2p)     0.93817      -0.23123
   707    C   54  px     Ryd( 4p)     0.00493       0.62109
   708    C   54  px     Ryd( 3p)     0.00039       0.15969
   709    C   54  py     Val( 2p)     0.86755      -0.27725
   710    C   54  py     Ryd( 4p)     0.00230       0.53986
   711    C   54  py     Ryd( 3p)     0.00051       0.09348
   712    C   54  pz     Val( 2p)     0.88993      -0.24127
   713    C   54  pz     Ryd( 4p)     0.00519       0.61602
   714    C   54  pz     Ryd( 3p)     0.00053       0.14225
   715    C   54  dxy    Ryd( 3d)     0.00151       2.18375
   716    C   54  dxz    Ryd( 3d)     0.00119       2.27646
   717    C   54  dyz    Ryd( 3d)     0.00123       2.12481
   718    C   54  dx2y2  Ryd( 3d)     0.00112       2.19529
   719    C   54  dz2    Ryd( 3d)     0.00184       2.11419

   720    N   55  S      Cor( 1S)     1.99923     -14.77829
   721    N   55  S      Val( 2S)     1.35041      -0.78890
   722    N   55  S      Ryd( 3S)     0.00044       0.89874
   723    N   55  S      Ryd( 4S)     0.00019       1.04238
   724    N   55  px     Val( 2p)     1.32907      -0.44241
   725    N   55  px     Ryd( 3p)     0.00337       0.47946
   726    N   55  px     Ryd( 4p)     0.00049       0.48413
   727    N   55  py     Val( 2p)     1.67129      -0.48952
   728    N   55  py     Ryd( 3p)     0.00689       0.42167
   729    N   55  py     Ryd( 4p)     0.00031       0.53976
   730    N   55  pz     Val( 2p)     1.42580      -0.45473
   731    N   55  pz     Ryd( 4p)     0.00196       0.64935
   732    N   55  pz     Ryd( 3p)     0.00053       0.59535
   733    N   55  dxy    Ryd( 3d)     0.00202       1.73720
   734    N   55  dxz    Ryd( 3d)     0.00120       2.04861
   735    N   55  dyz    Ryd( 3d)     0.00344       1.90491
   736    N   55  dx2y2  Ryd( 3d)     0.00300       1.94441
   737    N   55  dz2    Ryd( 3d)     0.00113       1.80074

   738    H   56  S      Val( 1S)     0.55299      -0.02291
   739    H   56  S      Ryd( 2S)     0.00166       0.54336

   740    H   57  S      Val( 1S)     0.57254      -0.01328
   741    H   57  S      Ryd( 2S)     0.00087       0.58966

   742    N   58  S      Cor( 1S)     1.99935     -14.78741
   743    N   58  S      Val( 2S)     1.34682      -0.78185
   744    N   58  S      Ryd( 3S)     0.00028       0.86341
   745    N   58  S      Ryd( 4S)     0.00009       0.90169
   746    N   58  px     Val( 2p)     1.45070      -0.44789
   747    N   58  px     Ryd( 4p)     0.00240       0.69513
   748    N   58  px     Ryd( 3p)     0.00054       0.55482
   749    N   58  py     Val( 2p)     1.52852      -0.45146
   750    N   58  py     Ryd( 3p)     0.00398       0.51152
   751    N   58  py     Ryd( 4p)     0.00020       0.52853
   752    N   58  pz     Val( 2p)     1.47247      -0.44671
   753    N   58  pz     Ryd( 3p)     0.00504       0.40685
   754    N   58  pz     Ryd( 4p)     0.00066       0.46028
   755    N   58  dxy    Ryd( 3d)     0.00096       2.11424
   756    N   58  dxz    Ryd( 3d)     0.00032       1.89410
   757    N   58  dyz    Ryd( 3d)     0.00117       2.08970
   758    N   58  dx2y2  Ryd( 3d)     0.00041       1.87682
   759    N   58  dz2    Ryd( 3d)     0.00139       2.12998

   760    H   59  S      Val( 1S)     0.54858       0.01001
   761    H   59  S      Ryd( 2S)     0.00066       0.53291

   762    H   60  S      Val( 1S)     0.55891      -0.00333
   763    H   60  S      Ryd( 2S)     0.00170       0.52366

   764    H   61  S      Val( 1S)     0.73545      -0.03621
   765    H   61  S      Ryd( 2S)     0.00091       0.53808

   766    H   62  S      Val( 1S)     0.75008      -0.05528
   767    H   62  S      Ryd( 2S)     0.00080       0.54269

   768    H   63  S      Val( 1S)     0.74577      -0.04103
   769    H   63  S      Ryd( 2S)     0.00069       0.55879

   770    H   64  S      Val( 1S)     0.73346      -0.03187
   771    H   64  S      Ryd( 2S)     0.00086       0.57013

   772    H   65  S      Val( 1S)     0.72550      -0.03049
   773    H   65  S      Ryd( 2S)     0.00050       0.51913

   774    H   66  S      Val( 1S)     0.71487      -0.01736
   775    H   66  S      Ryd( 2S)     0.00077       0.45785

   776    H   67  S      Val( 1S)     0.75246      -0.03721
   777    H   67  S      Ryd( 2S)     0.00073       0.51624

   778    H   68  S      Val( 1S)     0.76058      -0.07786
   779    H   68  S      Ryd( 2S)     0.00073       0.50756

   780    H   69  S      Val( 1S)     0.76450       0.04515
   781    H   69  S      Ryd( 2S)     0.00106       0.63785

   782    H   70  S      Val( 1S)     0.77590       0.09493
   783    H   70  S      Ryd( 2S)     0.00066       0.67840

 WARNING:  1 low occupancy (<1.9990e) core orbital  found on  C    9
           1 low occupancy (<1.9990e) core orbital  found on  C   18
           1 low occupancy (<1.9990e) core orbital  found on  C   31
           1 low occupancy (<1.9990e) core orbital  found on  C   34
           1 low occupancy (<1.9990e) core orbital  found on  C   35
           1 low occupancy (<1.9990e) core orbital  found on  C   36
           1 low occupancy (<1.9990e) core orbital  found on  C   37
           1 low occupancy (<1.9990e) core orbital  found on  C   44
           1 low occupancy (<1.9990e) core orbital  found on  C   46
           1 low occupancy (<1.9990e) core orbital  found on  C   48
           1 low occupancy (<1.9990e) core orbital  found on  C   49
           1 low occupancy (<1.9990e) core orbital  found on  C   50
           1 low occupancy (<1.9990e) core orbital  found on  C   51
           1 low occupancy (<1.9990e) core orbital  found on  C   53
           1 low occupancy (<1.9990e) core orbital  found on  C   54

 WARNING:  Population inversion found on atom  C    1
           Population inversion found on atom  C    4
           Population inversion found on atom  N    6
           Population inversion found on atom  C    7
           Population inversion found on atom  C    9
           Population inversion found on atom  C   11
           Population inversion found on atom  N   12
           Population inversion found on atom  N   15
           Population inversion found on atom  C   16
           Population inversion found on atom  O   17
           Population inversion found on atom  C   18
           Population inversion found on atom  C   20
           Population inversion found on atom  P   24
           Population inversion found on atom  C   28
           Population inversion found on atom  C   31
           Population inversion found on atom  C   32
           Population inversion found on atom  C   33
           Population inversion found on atom  C   34
           Population inversion found on atom  C   35
           Population inversion found on atom  C   36
           Population inversion found on atom  C   37
           Population inversion found on atom  N   38
           Population inversion found on atom  N   41
           Population inversion found on atom  C   44
           Population inversion found on atom  N   45
           Population inversion found on atom  C   46
           Population inversion found on atom  C   48
           Population inversion found on atom  C   49
           Population inversion found on atom  C   50
           Population inversion found on atom  C   51
           Population inversion found on atom  C   52
           Population inversion found on atom  C   53
           Population inversion found on atom  C   54
           Population inversion found on atom  N   55
           Population inversion found on atom  N   58


 Summary of Natural Population Analysis:                  
                                                          
                                       Natural Population 
                Natural  -----------------------------------------------
    Atom  No    Charge         Core      Valence    Rydberg      Total
 -----------------------------------------------------------------------
      C    1   -0.12361      1.99913     4.10256    0.02191     6.12361
      H    2    0.20290      0.00000     0.79499    0.00210     0.79710
      O    3   -0.64138      1.99973     6.61825    0.02339     8.64138
      C    4    0.26866      1.99920     3.69681    0.03532     5.73134
      H    5    0.25966      0.00000     0.73883    0.00151     0.74034
      N    6   -0.49818      1.99908     5.47791    0.02119     7.49818
      C    7    0.06646      1.99904     3.91372    0.02078     5.93354
      H    8    0.26301      0.00000     0.73527    0.00173     0.73699
      C    9   -0.40283      1.99893     4.38776    0.01614     6.40283
      H   10    0.25399      0.00000     0.74510    0.00091     0.74601
      C   11    0.44704      1.99910     3.52318    0.03067     5.55296
      N   12   -0.82001      1.99922     5.80264    0.01815     7.82001
      H   13    0.44190      0.00000     0.55583    0.00227     0.55810
      H   14    0.42834      0.00000     0.57087    0.00079     0.57166
      N   15   -0.58437      1.99919     5.54876    0.03642     7.58437
      C   16    0.80210      1.99929     3.15758    0.04103     5.19790
      O   17   -0.66414      1.99973     6.63917    0.02524     8.66414
      C   18    0.04504      1.99900     3.93110    0.02486     5.95496
      H   19    0.25031      0.00000     0.74836    0.00133     0.74969
      C   20   -0.52627      1.99919     4.51127    0.01582     6.52627
      H   21    0.26661      0.00000     0.73280    0.00059     0.73339
      H   22    0.28668      0.00000     0.71103    0.00229     0.71332
      O   23   -0.87251      1.99974     6.85363    0.01915     8.87251
      P   24    2.64503      9.99864     2.20533    0.15101    12.35497
      O   25   -1.09451      1.99985     7.06926    0.02541     9.09451
      O   26   -1.10500      1.99984     7.07833    0.02683     9.10500
      O   27   -0.88311      1.99974     6.86234    0.02103     8.88311
      C   28   -0.32969      1.99930     4.31528    0.01510     6.32969
      H   29    0.19188      0.00000     0.80662    0.00149     0.80812
      H   30    0.24176      0.00000     0.75744    0.00079     0.75824
      C   31   -0.18499      1.99885     4.17094    0.01520     6.18499
      C   32   -0.15032      1.99911     4.13695    0.01426     6.15032
      C   33   -0.22114      1.99901     4.20694    0.01519     6.22114
      C   34   -0.04741      1.99895     4.03411    0.01435     6.04741
      C   35   -0.20798      1.99894     4.19440    0.01463     6.20798
      C   36   -0.15013      1.99900     4.13653    0.01460     6.15013
      C   37    0.52717      1.99890     3.44702    0.02690     5.47283
      N   38   -0.80199      1.99934     5.78669    0.01596     7.80199
      H   39    0.45330      0.00000     0.54558    0.00112     0.54670
      H   40    0.44436      0.00000     0.55487    0.00077     0.55564
      N   41   -0.78351      1.99930     5.76302    0.02120     7.78351
      H   42    0.44906      0.00000     0.54909    0.00184     0.55094
      H   43    0.45838      0.00000     0.53942    0.00220     0.54162
      C   44    0.21848      1.99897     3.76120    0.02135     5.78152
      N   45   -0.56150      1.99915     5.54735    0.01499     7.56150
      C   46    0.14617      1.99889     3.83570    0.01924     5.85383
      H   47    0.46184      0.00000     0.53734    0.00082     0.53816
      C   48   -0.06036      1.99885     4.04676    0.01476     6.06036
      C   49   -0.15636      1.99897     4.14398    0.01341     6.15636
      C   50   -0.25157      1.99890     4.23975    0.01292     6.25157
      C   51   -0.21019      1.99898     4.19620    0.01501     6.21019
      C   52   -0.16377      1.99924     4.15030    0.01424     6.16377
      C   53   -0.20462      1.99891     4.19066    0.01505     6.20462
      C   54    0.50155      1.99887     3.47733    0.02225     5.49845
      N   55   -0.80076      1.99923     5.77656    0.02497     7.80076
      H   56    0.44535      0.00000     0.55299    0.00166     0.55465
      H   57    0.42659      0.00000     0.57254    0.00087     0.57341
      N   58   -0.81531      1.99935     5.79850    0.01745     7.81531
      H   59    0.45075      0.00000     0.54858    0.00066     0.54925
      H   60    0.43939      0.00000     0.55891    0.00170     0.56061
      H   61    0.26364      0.00000     0.73545    0.00091     0.73636
      H   62    0.24911      0.00000     0.75008    0.00080     0.75089
      H   63    0.25354      0.00000     0.74577    0.00069     0.74646
      H   64    0.26568      0.00000     0.73346    0.00086     0.73432
      H   65    0.27400      0.00000     0.72550    0.00050     0.72600
      H   66    0.28436      0.00000     0.71487    0.00077     0.71564
      H   67    0.24681      0.00000     0.75246    0.00073     0.75319
      H   68    0.23869      0.00000     0.76058    0.00073     0.76131
      H   69    0.23443      0.00000     0.76450    0.00106     0.76557
      H   70    0.22344      0.00000     0.77590    0.00066     0.77656
 =======================================================================
   * Total *    1.00000     87.96664   209.05080    0.98255   298.00000

                                 Natural Population      
 --------------------------------------------------------
   Core                      87.96664 ( 99.9621% of  88)
   Valence                  209.05080 ( 99.5480% of 210)
   Natural Minimal Basis    297.01745 ( 99.6703% of 298)
   Natural Rydberg Basis      0.98255 (  0.3297% of 298)
 --------------------------------------------------------

    Atom  No          Natural Electron Configuration
 ----------------------------------------------------------------------------
      C    1      [core]2S( 1.00)2p( 3.10)3d( 0.01)4p( 0.01)
      H    2            1S( 0.79)
      O    3      [core]2S( 1.61)2p( 5.01)3p( 0.01)3d( 0.01)
      C    4      [core]2S( 0.95)2p( 2.75)3p( 0.01)3d( 0.01)4p( 0.02)
      H    5            1S( 0.74)
      N    6      [core]2S( 1.19)2p( 4.28)4p( 0.01)
      C    7      [core]2S( 0.91)2p( 3.01)4p( 0.01)
      H    8            1S( 0.74)
      C    9      [core]2S( 0.95)2p( 3.43)4p( 0.01)
      H   10            1S( 0.75)
      C   11      [core]2S( 0.78)2p( 2.75)3d( 0.01)4p( 0.02)
      N   12      [core]2S( 1.28)2p( 4.52)4p( 0.01)
      H   13            1S( 0.56)
      H   14            1S( 0.57)
      N   15      [core]2S( 1.36)2p( 4.19)3S( 0.01)3d( 0.02)4p( 0.01)
      C   16      [core]2S( 0.69)2p( 2.46)3d( 0.01)4p( 0.03)
      O   17      [core]2S( 1.69)2p( 4.95)3d( 0.02)
      C   18      [core]2S( 0.95)2p( 2.98)3d( 0.01)4p( 0.01)
      H   19            1S( 0.75)
      C   20      [core]2S( 1.06)2p( 3.45)4p( 0.01)
      H   21            1S( 0.73)
      H   22            1S( 0.71)
      O   23      [core]2S( 1.67)2p( 5.18)3p( 0.01)3d( 0.01)
      P   24      [core]3S( 0.65)3p( 1.55)3d( 0.13)5p( 0.02)
      O   25      [core]2S( 1.83)2p( 5.24)3d( 0.02)
      O   26      [core]2S( 1.82)2p( 5.26)3d( 0.02)
      O   27      [core]2S( 1.67)2p( 5.19)3p( 0.01)3d( 0.01)
      C   28      [core]2S( 1.08)2p( 3.23)3d( 0.01)4p( 0.01)
      H   29            1S( 0.81)
      H   30            1S( 0.76)
      C   31      [core]2S( 0.87)2p( 3.30)4p( 0.01)
      C   32      [core]2S( 0.95)2p( 3.18)4p( 0.01)
      C   33      [core]2S( 0.95)2p( 3.26)4p( 0.01)
      C   34      [core]2S( 0.87)2p( 3.16)4p( 0.01)
      C   35      [core]2S( 0.94)2p( 3.25)4p( 0.01)
      C   36      [core]2S( 0.96)2p( 3.18)4p( 0.01)
      C   37      [core]2S( 0.79)2p( 2.66)3d( 0.01)4p( 0.01)
      N   38      [core]2S( 1.34)2p( 4.44)4p( 0.01)
      H   39            1S( 0.55)
      H   40            1S( 0.55)
      N   41      [core]2S( 1.36)2p( 4.40)3d( 0.01)4p( 0.01)
      H   42            1S( 0.55)
      H   43            1S( 0.54)
      C   44      [core]2S( 0.84)2p( 2.92)4p( 0.01)
      N   45      [core]2S( 1.22)2p( 4.33)4p( 0.01)
      C   46      [core]2S( 0.81)2p( 3.03)4p( 0.01)
      H   47            1S( 0.54)
      C   48      [core]2S( 0.85)2p( 3.20)4p( 0.01)
      C   49      [core]2S( 0.94)2p( 3.20)4p( 0.01)
      C   50      [core]2S( 0.95)2p( 3.29)4p( 0.01)
      C   51      [core]2S( 0.96)2p( 3.24)4p( 0.01)
      C   52      [core]2S( 0.98)2p( 3.17)4p( 0.01)
      C   53      [core]2S( 0.88)2p( 3.31)4p( 0.01)
      C   54      [core]2S( 0.78)2p( 2.70)3d( 0.01)4p( 0.01)
      N   55      [core]2S( 1.35)2p( 4.43)3p( 0.01)3d( 0.01)
      H   56            1S( 0.55)
      H   57            1S( 0.57)
      N   58      [core]2S( 1.35)2p( 4.45)3p( 0.01)
      H   59            1S( 0.55)
      H   60            1S( 0.56)
      H   61            1S( 0.74)
      H   62            1S( 0.75)
      H   63            1S( 0.75)
      H   64            1S( 0.73)
      H   65            1S( 0.73)
      H   66            1S( 0.71)
      H   67            1S( 0.75)
      H   68            1S( 0.76)
      H   69            1S( 0.76)
      H   70            1S( 0.78)


 NBO analysis skipped by request.
 Leave Link  607 at Tue Dec 26 20:21:11 2023, MaxMem=  2684354560 cpu:             348.3 elap:               5.5
 (Enter /usr/g16/l9999.exe)

 Test job not archived.
 1\1\GINC-LW07\SP\RM062X\6-31+G(d)\C25H30N8O6P1(1+)\LVZIYI\26-Dec-2023\
 0\\#p m062x/6-31+g(d) charge nosymm POP=NPA iop(9/40=4) iop(6/10=1) de
 nsity 5D 7F\\Atom number=70\\1,1\C,0,20.4098,28.6655,35.6709\H,0,20.37
 07,27.5771,35.7137\O,0,21.72,29.1479,35.6314\C,0,22.2169,29.1189,36.95
 73\H,0,22.4764,28.0878,37.1975\N,0,23.3695,30.0431,37.0225\C,0,23.2853
 ,31.2789,36.4946\H,0,22.4358,31.6158,35.9191\C,0,24.2908,32.1604,36.64
 19\H,0,24.2255,33.0808,36.0807\C,0,25.4305,31.719,37.391\N,0,26.4604,3
 2.4915,37.4427\H,0,27.2912,32.2285,37.9534\H,0,26.6316,33.261,36.8113\
 N,0,25.4934,30.5441,37.9297\C,0,24.4107,29.7976,37.865\O,0,24.4498,28.
 7668,38.5039\C,0,19.7857,29.3129,36.8719\H,0,19.3132,30.229,36.5174\C,
 0,20.998,29.6181,37.7698\H,0,21.1203,30.6807,37.9794\H,0,20.8351,28.94
 59,38.6123\O,0,18.7991,28.4471,37.4217\P,0,17.9795,28.7875,38.7661\O,0
 ,16.9228,27.737,38.7761\O,0,17.5282,30.1941,38.7295\O,0,18.888,28.6339
 ,39.9838\C,0,19.2487,27.324,40.4644\H,0,19.8699,26.8417,39.7096\H,0,18
 .4143,26.6428,40.6311\C,0,23.1368,27.5402,31.6122\C,0,24.3931,28.1887,
 31.3547\C,0,24.6657,28.9274,30.2101\C,0,23.6863,28.9021,29.1799\C,0,22
 .5104,28.118,29.299\C,0,22.156,27.6251,30.4994\C,0,22.894,26.8999,32.7
 886\N,0,21.9097,25.9934,32.9209\H,0,22.1655,25.1909,33.4819\H,0,21.410
 9,25.6454,32.1121\N,0,23.6729,26.9561,33.8684\H,0,24.1162,27.864,33.92
 67\H,0,23.124,26.7527,34.6939\C,0,23.8307,29.71,28.0252\N,0,25.034,30.
 3512,27.7606\C,0,24.8363,31.0505,26.6014\H,0,25.9083,30.2355,28.2528\C
 ,0,23.5068,30.9548,26.18\C,0,25.866,31.6179,25.9467\C,0,22.8471,30.123
 5,27.0459\C,0,23.1308,31.3366,24.8983\C,0,24.1349,32.0274,24.1771\C,0,
 25.5542,32.2401,24.6149\C,0,26.4957,32.8763,23.8817\N,0,27.6889,33.171
 1,24.288\H,0,28.3512,32.9736,23.5488\H,0,27.8911,32.6805,25.1497\N,0,2
 6.249,33.4608,22.6839\H,0,25.2975,33.7563,22.5065\H,0,26.9694,34.1473,
 22.4999\H,0,25.1919,28.1583,32.0868\H,0,25.5924,29.4689,30.0585\H,0,21
 .2988,26.9661,30.5768\H,0,21.8882,28.1116,28.4114\H,0,21.9004,29.6182,
 26.8928\H,0,22.1677,31.0958,24.463\H,0,23.9375,32.3512,23.1616\H,0,26.
 8898,31.6516,26.3014\H,0,19.88889333,28.80831069,34.74723266\H,0,19.85
 561326,27.27088736,41.34402227\\Version=ES64L-G16RevA.03\HF=-2200.3148
 056\RMSD=5.391e-09\Dipole=12.2378464,2.3069233,-21.9910583\Quadrupole=
 338.8199493,925.6982111,-1264.5181603,3246.7751149,2484.1827603,2352.3
 46954\PG=C01 [X(C25H30N8O6P1)]\\@


 EXPERIENCE IS THE FRUIT OF THE TREE OF ERRORS.
 Job cpu time:       1 days  0 hours  0 minutes  8.5 seconds.
 Elapsed time:       0 days  0 hours 22 minutes 35.4 seconds.
 File lengths (MBytes):  RWF=    322 Int=      0 D2E=      0 Chk=     36 Scr=      1
 Normal termination of Gaussian 16 at Tue Dec 26 20:21:11 2023.
